 running on   24 total cores
 distrk:  each k-point on   24 cores,    1 groups
 distr:  one band on    6 cores,    4 groups
 using from now: INCAR     
vasp.5.4.1 08Jul2015 (build Apr 24 2014 00:09:29) complex standard with constrain (TS)    
 POSCAR found type information on POSCAR  H  C  O  Ru Ir
 POSCAR found :  5 types and      53 ions
 scaLAPACK will be used
 LDA part: xc-table for Pade appr. of Perdew
 POSCAR, INCAR and KPOINTS ok, starting setup
 FFT: planning ...
 WAVECAR not read
 entering main loop
       N       E                     dE             d eps       ncg     rms          rms(c)
DAV:   1     0.370040991571E+04    0.37004E+04   -0.15765E+05  9280   0.134E+03
DAV:   2     0.157492615531E+03   -0.35429E+04   -0.32388E+04  9688   0.383E+02
DAV:   3    -0.374773797820E+03   -0.53227E+03   -0.50561E+03 11448   0.162E+02
DAV:   4    -0.399787805736E+03   -0.25014E+02   -0.24565E+02 11528   0.373E+01
DAV:   5    -0.400459172656E+03   -0.67137E+00   -0.66878E+00 11360   0.591E+00    0.136E+02
RMM:   6    -0.302923782620E+03    0.97535E+02   -0.41331E+02  9297   0.405E+01    0.853E+01
RMM:   7    -0.570490137976E+03   -0.26757E+03   -0.14408E+02  9624   0.203E+01    0.228E+02
RMM:   8    -0.388079210425E+03    0.18241E+03   -0.14672E+01  9313   0.900E+00    0.167E+02
RMM:   9    -0.415902072944E+03   -0.27823E+02   -0.29651E+01  9281   0.114E+01    0.154E+02
RMM:  10    -0.336638736679E+03    0.79263E+02   -0.38577E+01  9283   0.125E+01    0.764E+01
RMM:  11    -0.316714216042E+03    0.19925E+02   -0.30239E+01  9287   0.110E+01    0.516E+01
RMM:  12    -0.308563973755E+03    0.81502E+01   -0.14209E+01  9283   0.796E+00    0.382E+01
RMM:  13    -0.306197374300E+03    0.23666E+01   -0.40281E+00  9283   0.416E+00    0.283E+01
RMM:  14    -0.312247172488E+03   -0.60498E+01   -0.18872E+00  9296   0.292E+00    0.300E+01
RMM:  15    -0.314270033434E+03   -0.20229E+01   -0.17731E+00  9283   0.271E+00    0.235E+01
RMM:  16    -0.323347115069E+03   -0.90771E+01   -0.46119E+00  9281   0.449E+00    0.200E+01
RMM:  17    -0.331701088696E+03   -0.83540E+01   -0.54916E+00  9284   0.459E+00    0.140E+01
RMM:  18    -0.335673548481E+03   -0.39725E+01   -0.16729E+00  9322   0.250E+00    0.133E+01
RMM:  19    -0.340806591369E+03   -0.51330E+01   -0.29965E+00  9283   0.328E+00    0.129E+01
RMM:  20    -0.341921303635E+03   -0.11147E+01   -0.64888E-01  9369   0.140E+00    0.111E+01
RMM:  21    -0.347268003880E+03   -0.53467E+01   -0.35050E+00  9280   0.328E+00    0.122E+01
RMM:  22    -0.348644662574E+03   -0.13767E+01   -0.78118E-01  9280   0.150E+00    0.111E+01
RMM:  23    -0.349208660532E+03   -0.56400E+00   -0.27350E-01  9284   0.862E-01    0.106E+01
RMM:  24    -0.349311415652E+03   -0.10276E+00   -0.89607E-02  9283   0.520E-01    0.102E+01
RMM:  25    -0.349660923642E+03   -0.34951E+00   -0.17828E-01  9280   0.689E-01    0.916E+00
RMM:  26    -0.349760750237E+03   -0.99827E-01   -0.16563E-01  9280   0.711E-01    0.732E+00
RMM:  27    -0.350019576354E+03   -0.25883E+00   -0.23214E-01  9281   0.860E-01    0.576E+00
RMM:  28    -0.350033487424E+03   -0.13911E-01   -0.34532E-02  9459   0.332E-01    0.548E+00
RMM:  29    -0.350033196649E+03    0.29077E-03   -0.16457E-02  9300   0.226E-01    0.505E+00
RMM:  30    -0.350031558955E+03    0.16377E-02   -0.31665E-02  9280   0.321E-01    0.445E+00
RMM:  31    -0.349973023606E+03    0.58535E-01   -0.51138E-02  9280   0.411E-01    0.319E+00
RMM:  32    -0.349941385769E+03    0.31638E-01   -0.24489E-02  9283   0.291E-01    0.252E+00
RMM:  33    -0.349962127277E+03   -0.20742E-01   -0.17512E-02  9285   0.254E-01    0.210E+00
RMM:  34    -0.349979437597E+03   -0.17310E-01   -0.53971E-03  9320   0.137E-01    0.168E+00
RMM:  35    -0.350010555737E+03   -0.31118E-01   -0.89628E-03  9277   0.175E-01    0.172E+00
RMM:  36    -0.350021423489E+03   -0.10868E-01   -0.25137E-03  8866   0.886E-02    0.143E+00
RMM:  37    -0.350024403650E+03   -0.29802E-02   -0.22973E-03  8853   0.871E-02    0.116E+00
RMM:  38    -0.350021700118E+03    0.27035E-02   -0.13563E-03  8419   0.706E-02    0.933E-01
RMM:  39    -0.350020576850E+03    0.11233E-02   -0.58811E-04  7469   0.471E-02    0.777E-01
RMM:  40    -0.350025177085E+03   -0.46002E-02   -0.82342E-04  8013   0.517E-02    0.600E-01
RMM:  41    -0.350035723999E+03   -0.10547E-01   -0.17931E-03  8409   0.721E-02    0.317E-01
RMM:  42    -0.350049236555E+03   -0.13513E-01   -0.26352E-03  8552   0.823E-02    0.164E-01
RMM:  43    -0.350053817354E+03   -0.45808E-02   -0.59278E-04  7117   0.402E-02    0.126E-01
RMM:  44    -0.350055855532E+03   -0.20382E-02   -0.21815E-04  6137   0.259E-02    0.150E-01
RMM:  45    -0.350057150920E+03   -0.12954E-02   -0.83827E-05  5645   0.203E-02    0.114E-01
RMM:  46    -0.350057948006E+03   -0.79709E-03   -0.55074E-05  5475   0.155E-02    0.942E-02
RMM:  47    -0.350058427997E+03   -0.47999E-03   -0.53657E-05  5439   0.153E-02    0.963E-02
RMM:  48    -0.350059050815E+03   -0.62282E-03   -0.45434E-05  5359   0.120E-02    0.993E-02
RMM:  49    -0.350059761347E+03   -0.71053E-03   -0.39414E-05  5374   0.113E-02    0.656E-02
RMM:  50    -0.350060415305E+03   -0.65396E-03   -0.49272E-05  5401   0.122E-02    0.899E-02
RMM:  51    -0.350060005239E+03    0.41007E-03   -0.74492E-05  5460   0.181E-02    0.447E-02
RMM:  52    -0.350060209055E+03   -0.20382E-03   -0.29631E-05  5082   0.110E-02    0.303E-02
RMM:  53    -0.350060137506E+03    0.71549E-04   -0.31302E-05  5040   0.903E-03
 A1 parameter for BJ-Damping is not reasonable. Taking default.
   1 F= -.36025369E+03 E0= -.36023417E+03  d E =-.360254E+03  mag=     1.2128
 BRION: g(F)=  0.766E+01 g(S)=  0.000E+00
 bond charge predicted
       N       E                     dE             d eps       ncg     rms          rms(c)
DAV:   1    -0.352853500016E+03   -0.27933E+01   -0.16357E+02  9568   0.188E+01    0.828E+00
RMM:   2    -0.355903445974E+03   -0.30499E+01   -0.12797E+01  9280   0.779E+00    0.206E+01
RMM:   3    -0.354926120093E+03    0.97733E+00   -0.11880E+00  9411   0.198E+00    0.168E+01
RMM:   4    -0.353494718896E+03    0.14314E+01   -0.41557E-01  9299   0.129E+00    0.781E+00
RMM:   5    -0.353000387766E+03    0.49433E+00   -0.21983E-01  9283   0.930E-01    0.498E+00
RMM:   6    -0.352863474973E+03    0.13691E+00   -0.10408E-01  9283   0.602E-01    0.282E+00
RMM:   7    -0.352875753635E+03   -0.12279E-01   -0.38957E-02  9292   0.408E-01    0.312E+00
RMM:   8    -0.352877891235E+03   -0.21376E-02   -0.35131E-02  9280   0.359E-01    0.275E+00
RMM:   9    -0.352843486390E+03    0.34405E-01   -0.28230E-02  9280   0.314E-01    0.135E+00
RMM:  10    -0.352838038724E+03    0.54477E-02   -0.83307E-03  9281   0.183E-01    0.925E-01
RMM:  11    -0.352836535729E+03    0.15030E-02   -0.33551E-03  9205   0.117E-01    0.554E-01
RMM:  12    -0.352837599852E+03   -0.10641E-02   -0.15636E-03  8816   0.801E-02    0.460E-01
RMM:  13    -0.352837855304E+03   -0.25545E-03   -0.57467E-04  8065   0.497E-02    0.278E-01
RMM:  14    -0.352839092986E+03   -0.12377E-02   -0.21930E-04  6132   0.326E-02    0.228E-01
RMM:  15    -0.352839903422E+03   -0.81044E-03   -0.10492E-04  5576   0.255E-02    0.159E-01
RMM:  16    -0.352840787383E+03   -0.88396E-03   -0.92720E-05  5509   0.189E-02    0.125E-01
RMM:  17    -0.352841523941E+03   -0.73656E-03   -0.69925E-05  5360   0.160E-02    0.907E-02
RMM:  18    -0.352842268254E+03   -0.74431E-03   -0.63900E-05  5265   0.148E-02    0.581E-02
RMM:  19    -0.352842690909E+03   -0.42265E-03   -0.44627E-05  4993   0.128E-02    0.365E-02
RMM:  20    -0.352842769606E+03   -0.78698E-04   -0.24628E-05  4572   0.973E-03
 A1 parameter for BJ-Damping is not reasonable. Taking default.
   2 F= -.36305033E+03 E0= -.36302888E+03  d E =-.279664E+01  mag=     1.1289
 BRION: g(F)=  0.102E+01 g(S)=  0.000E+00 retain N=  1 mean eig= 0.95
 eig:   0.953
 bond charge predicted
       N       E                     dE             d eps       ncg     rms          rms(c)
DAV:   1    -0.353343267641E+03   -0.50058E+00   -0.21127E+01  9360   0.835E+00    0.310E+00
RMM:   2    -0.353445190247E+03   -0.10192E+00   -0.60689E-01  9256   0.166E+00    0.451E+00
RMM:   3    -0.353391094214E+03    0.54096E-01   -0.31104E-02  9474   0.427E-01    0.332E+00
RMM:   4    -0.353414324553E+03   -0.23230E-01   -0.15556E-02  9275   0.245E-01    0.350E+00
RMM:   5    -0.353407592128E+03    0.67324E-02   -0.35218E-02  9280   0.345E-01    0.254E+00
RMM:   6    -0.353410178120E+03   -0.25860E-02   -0.38224E-02  9280   0.369E-01    0.264E+00
RMM:   7    -0.353367884965E+03    0.42293E-01   -0.17388E-02  9279   0.263E-01    0.674E-01
RMM:   8    -0.353365133594E+03    0.27514E-02   -0.27546E-03  9085   0.114E-01    0.402E-01
RMM:   9    -0.353365764979E+03   -0.63139E-03   -0.58690E-04  7881   0.481E-02    0.402E-01
RMM:  10    -0.353365760996E+03    0.39831E-05   -0.11668E-04  5635   0.251E-02
 A1 parameter for BJ-Damping is not reasonable. Taking default.
   3 F= -.36356725E+03 E0= -.36354555E+03  d E =-.516924E+00  mag=     1.0584
 BRION: g(F)=  0.421E+00 g(S)=  0.000E+00 retain N=  2 mean eig= 1.51
 eig:   1.098  1.923
 bond charge predicted
       N       E                     dE             d eps       ncg     rms          rms(c)
DAV:   1    -0.353749171830E+03   -0.38341E+00   -0.22685E+01  9352   0.949E+00    0.241E+00
RMM:   2    -0.353821198303E+03   -0.72026E-01   -0.58803E-01  9247   0.172E+00    0.300E+00
RMM:   3    -0.353856678346E+03   -0.35480E-01   -0.45886E-02  9316   0.488E-01    0.348E+00
RMM:   4    -0.353827516007E+03    0.29162E-01   -0.17467E-02  9286   0.268E-01    0.278E+00
RMM:   5    -0.353816668579E+03    0.10847E-01   -0.23580E-02  9280   0.282E-01    0.238E+00
RMM:   6    -0.353815373125E+03    0.12955E-02   -0.25349E-02  9246   0.300E-01    0.201E+00
RMM:   7    -0.353797745804E+03    0.17627E-01   -0.13026E-02  9286   0.217E-01    0.128E+00
RMM:   8    -0.353787116914E+03    0.10629E-01   -0.46086E-03  9271   0.141E-01    0.392E-01
RMM:   9    -0.353786901311E+03    0.21560E-03   -0.10187E-03  8391   0.657E-02    0.204E-01
RMM:  10    -0.353787107941E+03   -0.20663E-03   -0.16375E-04  5672   0.298E-02    0.110E-01
RMM:  11    -0.353787861376E+03   -0.75343E-03   -0.11994E-04  5361   0.274E-02    0.937E-02
RMM:  12    -0.353788928823E+03   -0.10674E-02   -0.82131E-05  5214   0.230E-02    0.846E-02
RMM:  13    -0.353789842573E+03   -0.91375E-03   -0.45114E-05  5076   0.165E-02    0.513E-02
RMM:  14    -0.353790822388E+03   -0.97981E-03   -0.28236E-05  4611   0.114E-02    0.438E-02
RMM:  15    -0.353791883081E+03   -0.10607E-02   -0.23127E-05  4364   0.889E-03    0.451E-02
RMM:  16    -0.353792925454E+03   -0.10424E-02   -0.22517E-05  4247   0.784E-03    0.357E-02
RMM:  17    -0.353794090247E+03   -0.11648E-02   -0.37502E-05  4770   0.888E-03    0.255E-02
RMM:  18    -0.353795026482E+03   -0.93624E-03   -0.55016E-05  5014   0.998E-03    0.178E-02
RMM:  19    -0.353795293653E+03   -0.26717E-03   -0.54209E-05  4952   0.986E-03    0.162E-02
RMM:  20    -0.353795212987E+03    0.80666E-04   -0.15209E-05  4067   0.809E-03
 A1 parameter for BJ-Damping is not reasonable. Taking default.
   4 F= -.36399119E+03 E0= -.36396965E+03  d E =-.423941E+00  mag=     0.8366
 BRION: g(F)=  0.229E+00 g(S)=  0.000E+00 retain N=  1 mean eig= 3.30
 eig:   3.302
 bond charge predicted
       N       E                     dE             d eps       ncg     rms          rms(c)
DAV:   1    -0.354056657683E+03   -0.26136E+00   -0.16831E+01  9480   0.821E+00    0.165E+00
RMM:   2    -0.354161390027E+03   -0.10473E+00   -0.42180E-01  9265   0.146E+00    0.377E+00
RMM:   3    -0.354123083877E+03    0.38306E-01   -0.39960E-02  9323   0.436E-01    0.237E+00
RMM:   4    -0.354107178816E+03    0.15905E-01   -0.11091E-02  9286   0.212E-01    0.208E+00
RMM:   5    -0.354087999788E+03    0.19179E-01   -0.71464E-03  9220   0.165E-01    0.106E+00
RMM:   6    -0.354093978359E+03   -0.59786E-02   -0.89423E-03  9281   0.176E-01    0.135E+00
RMM:   7    -0.354084239308E+03    0.97391E-02   -0.74994E-03  9286   0.157E-01    0.815E-01
RMM:   8    -0.354080708915E+03    0.35304E-02   -0.26162E-03  9178   0.107E-01    0.368E-01
RMM:   9    -0.354081008760E+03   -0.29985E-03   -0.66186E-04  7760   0.508E-02    0.137E-01
RMM:  10    -0.354081370978E+03   -0.36222E-03   -0.11208E-04  5565   0.249E-02    0.801E-02
RMM:  11    -0.354081975916E+03   -0.60494E-03   -0.58993E-05  5166   0.197E-02    0.562E-02
RMM:  12    -0.354082750448E+03   -0.77453E-03   -0.44276E-05  4991   0.146E-02    0.544E-02
RMM:  13    -0.354083342375E+03   -0.59193E-03   -0.23832E-05  4721   0.118E-02    0.472E-02
RMM:  14    -0.354083886028E+03   -0.54365E-03   -0.15124E-05  4321   0.865E-03    0.376E-02
RMM:  15    -0.354084804480E+03   -0.91845E-03   -0.23600E-05  4499   0.832E-03    0.285E-02
RMM:  16    -0.354085957720E+03   -0.11532E-02   -0.50371E-05  4983   0.102E-02    0.241E-02
RMM:  17    -0.354086406138E+03   -0.44842E-03   -0.20263E-05  4313   0.790E-03    0.191E-02
RMM:  18    -0.354086768888E+03   -0.36275E-03   -0.16988E-05  4153   0.748E-03    0.147E-02
RMM:  19    -0.354087146650E+03   -0.37776E-03   -0.29516E-05  4234   0.763E-03    0.130E-02
RMM:  20    -0.354087240520E+03   -0.93870E-04   -0.17155E-05  3601   0.657E-03
 A1 parameter for BJ-Damping is not reasonable. Taking default.
   5 F= -.36427981E+03 E0= -.36425964E+03  d E =-.288619E+00  mag=     0.6422
 BRION: g(F)=  0.132E+00 g(S)=  0.000E+00 retain N=  1 mean eig= 3.51
 eig:   3.510
 bond charge predicted
       N       E                     dE             d eps       ncg     rms          rms(c)
DAV:   1    -0.354285762338E+03   -0.19862E+00   -0.23749E+01  9320   0.973E+00    0.158E+00
RMM:   2    -0.354363043164E+03   -0.77281E-01   -0.55529E-01  9227   0.172E+00    0.260E+00
RMM:   3    -0.354368691925E+03   -0.56488E-02   -0.48885E-02  9331   0.474E-01    0.231E+00
RMM:   4    -0.354365768791E+03    0.29231E-02   -0.12813E-02  9294   0.228E-01    0.245E+00
RMM:   5    -0.354334211966E+03    0.31557E-01   -0.82956E-03  9251   0.182E-01    0.994E-01
RMM:   6    -0.354335959855E+03   -0.17479E-02   -0.71128E-03  9282   0.160E-01    0.106E+00
RMM:   7    -0.354330954576E+03    0.50053E-02   -0.55801E-03  9285   0.137E-01    0.705E-01
RMM:   8    -0.354327824289E+03    0.31303E-02   -0.20002E-03  8976   0.934E-02    0.288E-01
RMM:   9    -0.354327334998E+03    0.48929E-03   -0.56343E-04  7571   0.475E-02    0.144E-01
RMM:  10    -0.354327254559E+03    0.80439E-04   -0.12485E-04  5455   0.260E-02
 A1 parameter for BJ-Damping is not reasonable. Taking default.
   6 F= -.36451683E+03 E0= -.36449773E+03  d E =-.237016E+00  mag=     0.5882
 BRION: g(F)=  0.749E-01 g(S)=  0.000E+00 retain N=  1 mean eig= 3.70
 eig:   3.704
 bond charge predicted
       N       E                     dE             d eps       ncg     rms          rms(c)
DAV:   1    -0.354438844159E+03   -0.11151E+00   -0.10146E+01  9568   0.647E+00    0.802E-01
RMM:   2    -0.354465559599E+03   -0.26715E-01   -0.22367E-01  9197   0.111E+00    0.108E+00
RMM:   3    -0.354470479747E+03   -0.49201E-02   -0.15567E-02  9537   0.282E-01    0.142E+00
RMM:   4    -0.354463180887E+03    0.72989E-02   -0.31924E-03  9062   0.117E-01    0.813E-01
RMM:   5    -0.354461263375E+03    0.19175E-02   -0.34226E-03  8722   0.101E-01    0.672E-01
RMM:   6    -0.354460428041E+03    0.83533E-03   -0.20895E-03  8738   0.837E-02    0.559E-01
RMM:   7    -0.354459581850E+03    0.84619E-03   -0.14391E-03  8732   0.707E-02    0.416E-01
RMM:   8    -0.354458690908E+03    0.89094E-03   -0.57027E-04  7836   0.510E-02    0.107E-01
RMM:   9    -0.354458713873E+03   -0.22965E-04   -0.12476E-04  5433   0.270E-02
 A1 parameter for BJ-Damping is not reasonable. Taking default.
   7 F= -.36464694E+03 E0= -.36462799E+03  d E =-.130119E+00  mag=     0.5485
 BRION: g(F)=  0.536E-01 g(S)=  0.000E+00 retain N=  1 mean eig= 4.85
 eig:   4.848
 bond charge predicted
       N       E                     dE             d eps       ncg     rms          rms(c)
DAV:   1    -0.354568715918E+03   -0.11003E+00   -0.26074E+01  9296   0.104E+01    0.126E+00
RMM:   2    -0.354642725368E+03   -0.74009E-01   -0.57286E-01  9246   0.184E+00    0.193E+00
RMM:   3    -0.354658694423E+03   -0.15969E-01   -0.42532E-02  9783   0.446E-01    0.248E+00
RMM:   4    -0.354628374910E+03    0.30320E-01   -0.94021E-03  9275   0.200E-01    0.119E+00
RMM:   5    -0.354622369395E+03    0.60055E-02   -0.69963E-03  9030   0.147E-01    0.829E-01
RMM:   6    -0.354621987795E+03    0.38160E-03   -0.41240E-03  9089   0.116E-01    0.797E-01
RMM:   7    -0.354620635895E+03    0.13519E-02   -0.35627E-03  9202   0.110E-01    0.659E-01
RMM:   8    -0.354618200208E+03    0.24357E-02   -0.17008E-03  8786   0.843E-02    0.199E-01
RMM:   9    -0.354617976796E+03    0.22341E-03   -0.32842E-04  6591   0.403E-02    0.127E-01
RMM:  10    -0.354617985591E+03   -0.87949E-05   -0.93100E-05  5257   0.270E-02
 A1 parameter for BJ-Damping is not reasonable. Taking default.
   8 F= -.36480462E+03 E0= -.36478541E+03  d E =-.157679E+00  mag=     0.5098
 BRION: g(F)=  0.327E-01 g(S)=  0.000E+00 retain N=  1 mean eig= 5.31
 eig:   5.308
 bond charge predicted
       N       E                     dE             d eps       ncg     rms          rms(c)
DAV:   1    -0.354676196355E+03   -0.58220E-01   -0.61676E+00  9520   0.516E+00    0.526E-01
RMM:   2    -0.354697774022E+03   -0.21578E-01   -0.12830E-01  9208   0.866E-01    0.124E+00
RMM:   3    -0.354691338882E+03    0.64351E-02   -0.85241E-03  9993   0.211E-01    0.814E-01
RMM:   4    -0.354688619067E+03    0.27198E-02   -0.18502E-03  8710   0.897E-02    0.442E-01
RMM:   5    -0.354688268649E+03    0.35042E-03   -0.11421E-03  8285   0.622E-02    0.378E-01
RMM:   6    -0.354688459155E+03   -0.19051E-03   -0.11291E-03  8301   0.608E-02    0.359E-01
RMM:   7    -0.354688847486E+03   -0.38833E-03   -0.10250E-03  8390   0.593E-02    0.363E-01
RMM:   8    -0.354688014375E+03    0.83311E-03   -0.36996E-04  6909   0.413E-02    0.923E-02
RMM:   9    -0.354688023487E+03   -0.91124E-05   -0.75791E-05  5181   0.244E-02
 A1 parameter for BJ-Damping is not reasonable. Taking default.
   9 F= -.36487429E+03 E0= -.36485494E+03  d E =-.696652E-01  mag=     0.4907
 BRION: g(F)=  0.242E-01 g(S)=  0.000E+00 retain N=  1 mean eig= 7.91
 eig:   7.913
 bond charge predicted
       N       E                     dE             d eps       ncg     rms          rms(c)
DAV:   1    -0.354748491533E+03   -0.60477E-01   -0.13636E+01  9336   0.777E+00    0.802E-01
RMM:   2    -0.354799665673E+03   -0.51174E-01   -0.28562E-01  9248   0.130E+00    0.206E+00
RMM:   3    -0.354780379805E+03    0.19286E-01   -0.18928E-02 10145   0.314E-01    0.119E+00
RMM:   4    -0.354775087608E+03    0.52922E-02   -0.39543E-03  9120   0.131E-01    0.738E-01
RMM:   5    -0.354774441951E+03    0.64566E-03   -0.28254E-03  8879   0.965E-02    0.687E-01
RMM:   6    -0.354774634271E+03   -0.19232E-03   -0.30445E-03  8911   0.969E-02    0.623E-01
RMM:   7    -0.354774734038E+03   -0.99767E-04   -0.24517E-03  9029   0.914E-02    0.594E-01
RMM:   8    -0.354772426345E+03    0.23077E-02   -0.10020E-03  8382   0.650E-02    0.156E-01
RMM:   9    -0.354772312747E+03    0.11360E-03   -0.15657E-04  5669   0.314E-02    0.102E-01
RMM:  10    -0.354772291234E+03    0.21513E-04   -0.58363E-05  5113   0.233E-02
 A1 parameter for BJ-Damping is not reasonable. Taking default.
  10 F= -.36495824E+03 E0= -.36493856E+03  d E =-.839542E-01  mag=     0.4805
 BRION: g(F)=  0.169E-01 g(S)=  0.000E+00
 BRIONS problems: POTIM should be increased
 retain N=  1 mean eig= 8.39
 eig:   8.390
 bond charge predicted
       N       E                     dE             d eps       ncg     rms          rms(c)
DAV:   1    -0.354797914807E+03   -0.25602E-01   -0.10005E+00  9616   0.217E+00    0.255E-01
RMM:   2    -0.354801660164E+03   -0.37454E-02   -0.21128E-02  9152   0.344E-01    0.587E-01
RMM:   3    -0.354799961599E+03    0.16986E-02   -0.11655E-03  8735   0.888E-02    0.269E-01
RMM:   4    -0.354800102014E+03   -0.14041E-03   -0.33071E-04  6769   0.409E-02    0.290E-01
RMM:   5    -0.354799979733E+03    0.12228E-03   -0.30385E-04  6669   0.409E-02    0.240E-01
RMM:   6    -0.354799982945E+03   -0.32122E-05   -0.18944E-04  5745   0.330E-02
 A1 parameter for BJ-Damping is not reasonable. Taking default.
  11 F= -.36498595E+03 E0= -.36496626E+03  d E =-.277024E-01  mag=     0.4788
 BRION: g(F)=  0.142E-01 g(S)=  0.000E+00
 BRIONS problems: POTIM should be increased
 retain N=  1 mean eig= 9.50
 eig:   9.497
 bond charge predicted
       N       E                     dE             d eps       ncg     rms          rms(c)
DAV:   1    -0.354856668816E+03   -0.56689E-01   -0.89052E+00  9296   0.649E+00    0.727E-01
RMM:   2    -0.354881755641E+03   -0.25087E-01   -0.17934E-01  9252   0.986E-01    0.144E+00
RMM:   3    -0.354873796719E+03    0.79589E-02   -0.91175E-03  9465   0.255E-01    0.759E-01
RMM:   4    -0.354880395144E+03   -0.65984E-02   -0.33385E-03  9115   0.109E-01    0.125E+00
RMM:   5    -0.354874323258E+03    0.60719E-02   -0.33777E-03  8754   0.101E-01    0.773E-01
RMM:   6    -0.354873504498E+03    0.81876E-03   -0.24251E-03  8990   0.874E-02    0.677E-01
RMM:   7    -0.354871853491E+03    0.16510E-02   -0.13390E-03  8662   0.712E-02    0.407E-01
RMM:   8    -0.354870862873E+03    0.99062E-03   -0.68228E-04  8052   0.537E-02    0.144E-01
RMM:   9    -0.354870767424E+03    0.95449E-04   -0.11296E-04  5312   0.265E-02
 A1 parameter for BJ-Damping is not reasonable. Taking default.
  12 F= -.36505630E+03 E0= -.36503642E+03  d E =-.703547E-01  mag=     0.4816
 BRION: g(F)=  0.104E-01 g(S)=  0.000E+00
 BRIONS problems: POTIM should be increased
 retain N=  1 mean eig= 9.24
 eig:   9.243
 bond charge predicted
       N       E                     dE             d eps       ncg     rms          rms(c)
DAV:   1    -0.354882265543E+03   -0.11403E-01   -0.22768E-01  9696   0.102E+00    0.108E-01
RMM:   2    -0.354883166547E+03   -0.90100E-03   -0.47499E-03  8828   0.148E-01    0.267E-01
RMM:   3    -0.354882911652E+03    0.25489E-03   -0.23527E-04  5896   0.448E-02    0.194E-01
RMM:   4    -0.354882781052E+03    0.13060E-03   -0.11544E-04  5431   0.257E-02    0.122E-01
RMM:   5    -0.354882712160E+03    0.68892E-04   -0.45801E-05  4953   0.168E-02
 A1 parameter for BJ-Damping is not reasonable. Taking default.
  13 F= -.36506788E+03 E0= -.36504800E+03  d E =-.115824E-01  mag=     0.4835
 BRION: g(F)=  0.996E-02 g(S)=  0.000E+00
 BRIONS problems: POTIM should be increased
 retain N=  1 mean eig= 8.26
 eig:   8.257
 bond charge predicted
       N       E                     dE             d eps       ncg     rms          rms(c)
DAV:   1    -0.354920426706E+03   -0.37646E-01   -0.34347E+00  9296   0.395E+00    0.361E-01
RMM:   2    -0.354927558813E+03   -0.71321E-02   -0.66979E-02  9166   0.548E-01    0.429E-01
RMM:   3    -0.354930423557E+03   -0.28647E-02   -0.31581E-03  9193   0.158E-01    0.781E-01
RMM:   4    -0.354927084664E+03    0.33389E-02   -0.90231E-04  8328   0.618E-02    0.361E-01
RMM:   5    -0.354926590873E+03    0.49379E-03   -0.33853E-04  6716   0.396E-02    0.216E-01
RMM:   6    -0.354926618401E+03   -0.27527E-04   -0.28197E-04  6361   0.367E-02
 A1 parameter for BJ-Damping is not reasonable. Taking default.
  14 F= -.36511028E+03 E0= -.36509037E+03  d E =-.423928E-01  mag=     0.4852
 BRION: g(F)=  0.911E-02 g(S)=  0.000E+00
 BRIONS problems: POTIM should be increased
 retain N=  1 mean eig=10.98
 eig:  10.980
 bond charge predicted
       N       E                     dE             d eps       ncg     rms          rms(c)
DAV:   1    -0.354940190546E+03   -0.13600E-01   -0.39575E-01  9632   0.133E+00    0.193E-01
RMM:   2    -0.354942523459E+03   -0.23329E-02   -0.84523E-03  9162   0.196E-01    0.501E-01
RMM:   3    -0.354940951135E+03    0.15723E-02   -0.97169E-04  8162   0.702E-02    0.172E-01
RMM:   4    -0.354941150034E+03   -0.19890E-03   -0.14852E-04  5649   0.276E-02    0.265E-01
RMM:   5    -0.354940833339E+03    0.31670E-03   -0.61364E-05  5101   0.225E-02    0.123E-01
RMM:   6    -0.354940789026E+03    0.44313E-04   -0.41395E-05  5075   0.175E-02
 A1 parameter for BJ-Damping is not reasonable. Taking default.
  15 F= -.36512379E+03 E0= -.36510397E+03  d E =-.135169E-01  mag=     0.4857
 BRION: g(F)=  0.915E-02 g(S)=  0.000E+00 retain N=  1 mean eig= 5.14
 eig:   5.136
 bond charge predicted
       N       E                     dE             d eps       ncg     rms          rms(c)
DAV:   1    -0.354939309969E+03    0.15234E-02   -0.72896E-03  9536   0.192E-01    0.884E-02
RMM:   2    -0.354940338885E+03   -0.10289E-02   -0.57407E-04  7583   0.510E-02    0.375E-01
RMM:   3    -0.354939646028E+03    0.69286E-03   -0.15717E-04  5353   0.309E-02    0.237E-01
RMM:   4    -0.354939290497E+03    0.35553E-03   -0.59309E-05  5104   0.211E-02    0.308E-02
RMM:   5    -0.354939289189E+03    0.13075E-05   -0.14500E-05  4643   0.106E-02
 A1 parameter for BJ-Damping is not reasonable. Taking default.
  16 F= -.36512234E+03 E0= -.36510250E+03  d E =0.145621E-02  mag=     0.4858
 BRION: g(F)=  0.911E-02 g(S)=  0.000E+00 retain N=  1 mean eig= 3.43
 eig:   3.432
 bond charge predicted
       N       E                     dE             d eps       ncg     rms          rms(c)
DAV:   1    -0.354939120590E+03    0.16991E-03   -0.56667E-02  9584   0.512E-01    0.634E-02
RMM:   2    -0.354939306944E+03   -0.18635E-03   -0.12856E-03  8403   0.867E-02    0.127E-01
RMM:   3    -0.354939246477E+03    0.60466E-04   -0.58298E-05  5060   0.231E-02
 A1 parameter for BJ-Damping is not reasonable. Taking default.
  17 F= -.36512214E+03 E0= -.36510230E+03  d E =0.194632E-03  mag=     0.4857
 BRION: g(F)=  0.943E-02 g(S)=  0.000E+00 retain N=  2 mean eig= 4.40
 eig:   4.402  4.402
 bond charge predicted
       N       E                     dE             d eps       ncg     rms          rms(c)
DAV:   1    -0.354932347117E+03    0.69598E-02   -0.16568E-01  9376   0.861E-01    0.933E-02
RMM:   2    -0.354933462829E+03   -0.11157E-02   -0.38650E-03  8873   0.141E-01    0.325E-01
RMM:   3    -0.354932849190E+03    0.61364E-03   -0.22815E-04  5944   0.410E-02    0.175E-01
RMM:   4    -0.354932702828E+03    0.14636E-03   -0.72274E-05  5106   0.248E-02    0.543E-02
RMM:   5    -0.354932730185E+03   -0.27357E-04   -0.35566E-05  4919   0.156E-02
 A1 parameter for BJ-Damping is not reasonable. Taking default.
  18 F= -.36511607E+03 E0= -.36509623E+03  d E =0.606891E-02  mag=     0.4860
 BRION: g(F)=  0.880E-02 g(S)=  0.000E+00 retain N=  3 mean eig= 4.28
 eig:   5.896  5.896  1.038
 bond charge predicted
       N       E                     dE             d eps       ncg     rms          rms(c)
DAV:   1    -0.354910055258E+03    0.22648E-01   -0.10695E+00  9280   0.218E+00    0.241E-01
RMM:   2    -0.354912366390E+03   -0.23111E-02   -0.22616E-02  9074   0.319E-01    0.230E-01
RMM:   3    -0.354912933724E+03   -0.56733E-03   -0.14019E-03  8378   0.938E-02    0.383E-01
RMM:   4    -0.354912429519E+03    0.50420E-03   -0.34099E-04  6557   0.363E-02    0.282E-01
RMM:   5    -0.354912055650E+03    0.37387E-03   -0.73811E-05  5215   0.232E-02    0.141E-01
RMM:   6    -0.354912099628E+03   -0.43977E-04   -0.12343E-04  5240   0.260E-02
 A1 parameter for BJ-Damping is not reasonable. Taking default.
  19 F= -.36509640E+03 E0= -.36507658E+03  d E =0.196724E-01  mag=     0.4887
 BRION: g(F)=  0.785E-02 g(S)=  0.000E+00 retain N=  1 mean eig= 0.05
 eig:   0.054
 bond charge predicted
       N       E                     dE             d eps       ncg     rms          rms(c)
DAV:   1    -0.354902908195E+03    0.91475E-02   -0.26819E-01  9552   0.108E+00    0.152E-01
RMM:   2    -0.354904563747E+03   -0.16556E-02   -0.59394E-03  9062   0.165E-01    0.409E-01
RMM:   3    -0.354903602167E+03    0.96158E-03   -0.57473E-04  7427   0.571E-02    0.207E-01
RMM:   4    -0.354903494597E+03    0.10757E-03   -0.96044E-05  5228   0.246E-02    0.189E-01
RMM:   5    -0.354903301110E+03    0.19349E-03   -0.48190E-05  5059   0.209E-02    0.470E-02
RMM:   6    -0.354903339580E+03   -0.38470E-04   -0.50265E-05  4994   0.165E-02
 A1 parameter for BJ-Damping is not reasonable. Taking default.
  20 F= -.36508808E+03 E0= -.36506828E+03  d E =0.832128E-02  mag=     0.4926
 BRION: g(F)=  0.744E-02 g(S)=  0.000E+00 retain N=  2 mean eig= 3.66
 eig:   0.725  6.588
 bond charge predicted
       N       E                     dE             d eps       ncg     rms          rms(c)
DAV:   1    -0.354907448028E+03   -0.41469E-02   -0.17122E-01  9400   0.899E-01    0.988E-02
RMM:   2    -0.354908458228E+03   -0.10102E-02   -0.34513E-03  8997   0.137E-01    0.319E-01
RMM:   3    -0.354907860831E+03    0.59740E-03   -0.20623E-04  5774   0.415E-02    0.178E-01
RMM:   4    -0.354907775650E+03    0.85182E-04   -0.81014E-05  5238   0.247E-02
 A1 parameter for BJ-Damping is not reasonable. Taking default.
  21 F= -.36509226E+03 E0= -.36507248E+03  d E =-.417832E-02  mag=     0.4942
 BRION: g(F)=  0.711E-02 g(S)=  0.000E+00 retain N=  1 mean eig= 6.02
 eig:   6.023
 bond charge predicted
       N       E                     dE             d eps       ncg     rms          rms(c)
DAV:   1    -0.354918318044E+03   -0.10457E-01   -0.38015E-01  9296   0.133E+00    0.143E-01
RMM:   2    -0.354919663601E+03   -0.13456E-02   -0.74576E-03  8989   0.193E-01    0.317E-01
RMM:   3    -0.354919198871E+03    0.46473E-03   -0.42530E-04  6927   0.563E-02    0.242E-01
RMM:   4    -0.354918994848E+03    0.20402E-03   -0.98116E-05  5365   0.264E-02    0.117E-01
RMM:   5    -0.354919082702E+03   -0.87854E-04   -0.11438E-04  5393   0.248E-02
 A1 parameter for BJ-Damping is not reasonable. Taking default.
  22 F= -.36510293E+03 E0= -.36508319E+03  d E =-.106766E-01  mag=     0.4963
 BRION: g(F)=  0.689E-02 g(S)=  0.000E+00
 BRIONS problems: POTIM should be increased
 retain N=  1 mean eig=15.04
 eig:  15.035
 bond charge predicted
       N       E                     dE             d eps       ncg     rms          rms(c)
DAV:   1    -0.354934230767E+03   -0.15236E-01   -0.64771E-01  9296   0.170E+00    0.204E-01
RMM:   2    -0.354936817039E+03   -0.25863E-02   -0.13002E-02  9112   0.242E-01    0.443E-01
RMM:   3    -0.354936616028E+03    0.20101E-03   -0.87660E-04  8182   0.727E-02    0.443E-01
RMM:   4    -0.354935617352E+03    0.99868E-03   -0.25113E-04  6392   0.377E-02    0.217E-01
RMM:   5    -0.354935415297E+03    0.20205E-03   -0.11485E-04  5260   0.297E-02    0.147E-01
RMM:   6    -0.354935382651E+03    0.32645E-04   -0.64221E-05  5072   0.210E-02
 A1 parameter for BJ-Damping is not reasonable. Taking default.
  23 F= -.36511827E+03 E0= -.36509849E+03  d E =-.153394E-01  mag=     0.4978
 BRION: g(F)=  0.684E-02 g(S)=  0.000E+00
 BRIONS problems: POTIM should be increased
 retain N=  1 mean eig= 8.08
 eig:   8.077
 bond charge predicted
       N       E                     dE             d eps       ncg     rms          rms(c)
DAV:   1    -0.354938053814E+03   -0.26385E-02   -0.26182E-02  9704   0.338E-01    0.106E-01
RMM:   2    -0.354939245327E+03   -0.11915E-02   -0.14140E-03  8474   0.750E-02    0.397E-01
RMM:   3    -0.354938164403E+03    0.10809E-02   -0.44872E-04  6706   0.390E-02    0.124E-01
RMM:   4    -0.354938050440E+03    0.11396E-03   -0.27394E-05  4992   0.152E-02    0.583E-02
RMM:   5    -0.354938048718E+03    0.17213E-05   -0.12699E-05  4716   0.935E-03
 A1 parameter for BJ-Damping is not reasonable. Taking default.
  24 F= -.36512078E+03 E0= -.36510098E+03  d E =-.250185E-02  mag=     0.4983
 BRION: g(F)=  0.685E-02 g(S)=  0.000E+00 retain N=  1 mean eig= 0.87
 eig:   0.865
 bond charge predicted
       N       E                     dE             d eps       ncg     rms          rms(c)
DAV:   1    -0.354943358283E+03   -0.53078E-02   -0.60669E-02  9376   0.512E-01    0.647E-02
RMM:   2    -0.354943619371E+03   -0.26109E-03   -0.12788E-03  7936   0.736E-02    0.145E-01
RMM:   3    -0.354943495866E+03    0.12351E-03   -0.87132E-05  5139   0.271E-02    0.923E-02
RMM:   4    -0.354943520477E+03   -0.24611E-04   -0.29590E-05  4970   0.145E-02
 A1 parameter for BJ-Damping is not reasonable. Taking default.
  25 F= -.36512593E+03 E0= -.36510613E+03  d E =-.515156E-02  mag=     0.4985
 BRION: g(F)=  0.689E-02 g(S)=  0.000E+00 retain N=  2 mean eig= 4.17
 eig:   0.900  7.431
 bond charge predicted
       N       E                     dE             d eps       ncg     rms          rms(c)
DAV:   1    -0.354942189123E+03    0.13067E-02   -0.51068E-03  9136   0.152E-01    0.587E-02
RMM:   2    -0.354944285997E+03   -0.20969E-02   -0.32983E-04  6692   0.365E-02    0.537E-01
RMM:   3    -0.354942187803E+03    0.20982E-02   -0.15045E-04  5353   0.322E-02    0.583E-02
RMM:   4    -0.354942181388E+03    0.64152E-05   -0.34135E-05  5064   0.180E-02
 A1 parameter for BJ-Damping is not reasonable. Taking default.
  26 F= -.36512466E+03 E0= -.36510487E+03  d E =0.126400E-02  mag=     0.4986
 BRION: g(F)=  0.690E-02 g(S)=  0.000E+00 retain N=  3 mean eig= 5.06
 eig:   0.611  7.285  7.285
 bond charge predicted
       N       E                     dE             d eps       ncg     rms          rms(c)
DAV:   1    -0.354934310394E+03    0.78774E-02   -0.14052E-01  9312   0.777E-01    0.813E-02
RMM:   2    -0.354934584191E+03   -0.27380E-03   -0.29073E-03  8698   0.115E-01    0.675E-02
RMM:   3    -0.354934735918E+03   -0.15173E-03   -0.12637E-04  5273   0.339E-02    0.163E-01
RMM:   4    -0.354934591640E+03    0.14428E-03   -0.41066E-05  5034   0.177E-02    0.858E-02
RMM:   5    -0.354934565729E+03    0.25911E-04   -0.19054E-05  4907   0.125E-02
 A1 parameter for BJ-Damping is not reasonable. Taking default.
  27 F= -.36511749E+03 E0= -.36509770E+03  d E =0.716838E-02  mag=     0.4988
 BRION: g(F)=  0.674E-02 g(S)=  0.000E+00 retain N=  2 mean eig= 3.29
 eig:   6.257  0.322
 bond charge predicted
       N       E                     dE             d eps       ncg     rms          rms(c)
DAV:   1    -0.354935465763E+03   -0.87412E-03   -0.21063E-01  9400   0.985E-01    0.114E-01
RMM:   2    -0.354936538926E+03   -0.10732E-02   -0.41621E-03  8999   0.149E-01    0.340E-01
RMM:   3    -0.354935814135E+03    0.72479E-03   -0.18339E-04  5605   0.419E-02    0.985E-02
RMM:   4    -0.354935850657E+03   -0.36523E-04   -0.91621E-05  5209   0.256E-02
 A1 parameter for BJ-Damping is not reasonable. Taking default.
  28 F= -.36511865E+03 E0= -.36509888E+03  d E =-.115646E-02  mag=     0.4985
 BRION: g(F)=  0.686E-02 g(S)=  0.000E+00 retain N=  2 mean eig= 3.73
 eig:   0.177  7.278
 bond charge predicted
       N       E                     dE             d eps       ncg     rms          rms(c)
DAV:   1    -0.354933012508E+03    0.28016E-02   -0.21533E-01  9384   0.100E+00    0.124E-01
RMM:   2    -0.354940627476E+03   -0.76150E-02   -0.51893E-03  9162   0.160E-01    0.101E+00
RMM:   3    -0.354933394769E+03    0.72327E-02   -0.60886E-04  7853   0.596E-02    0.921E-02
RMM:   4    -0.354933389059E+03    0.57106E-05   -0.10241E-04  5267   0.298E-02
 A1 parameter for BJ-Damping is not reasonable. Taking default.
  29 F= -.36511635E+03 E0= -.36509653E+03  d E =0.229808E-02  mag=     0.4987
 BRION: g(F)=  0.674E-02 g(S)=  0.000E+00 retain N=  1 mean eig= 5.11
 eig:   5.106
 bond charge predicted
       N       E                     dE             d eps       ncg     rms          rms(c)
DAV:   1    -0.354940691272E+03   -0.72965E-02   -0.11203E-01  9504   0.692E-01    0.104E-01
RMM:   2    -0.354943342442E+03   -0.26512E-02   -0.26538E-03  8820   0.106E-01    0.595E-01
RMM:   3    -0.354940959444E+03    0.23830E-02   -0.26266E-04  6228   0.405E-02    0.127E-01
RMM:   4    -0.354940909932E+03    0.49512E-04   -0.81741E-05  5157   0.253E-02
 A1 parameter for BJ-Damping is not reasonable. Taking default.
  30 F= -.36512342E+03 E0= -.36510360E+03  d E =-.706509E-02  mag=     0.4988
 BRION: g(F)=  0.678E-02 g(S)=  0.000E+00 retain N=  2 mean eig= 4.39
 eig:   4.385  4.385
 bond charge predicted
       N       E                     dE             d eps       ncg     rms          rms(c)
DAV:   1    -0.354940515212E+03    0.44423E-03   -0.65044E-04  8704   0.633E-02    0.774E-02
RMM:   2    -0.354941546541E+03   -0.10313E-02   -0.40260E-04  6805   0.373E-02    0.374E-01
RMM:   3    -0.354940621333E+03    0.92521E-03   -0.23339E-04  5898   0.313E-02    0.138E-01
RMM:   4    -0.354940486677E+03    0.13466E-03   -0.25124E-05  4943   0.139E-02    0.397E-02
RMM:   5    -0.354940484521E+03    0.21564E-05   -0.77149E-06  4231   0.808E-03
 A1 parameter for BJ-Damping is not reasonable. Taking default.
  31 F= -.36512302E+03 E0= -.36510322E+03  d E =0.401400E-03  mag=     0.4988
 BRION: g(F)=  0.679E-02 g(S)=  0.000E+00 retain N=  3 mean eig= 2.90
 eig:   4.265  4.265  0.174
 bond charge predicted
       N       E                     dE             d eps       ncg     rms          rms(c)
DAV:   1    -0.354939560680E+03    0.92600E-03   -0.41310E-03  9136   0.138E-01    0.183E-02
RMM:   2    -0.354939583484E+03   -0.22805E-04   -0.84225E-05  4975   0.214E-02    0.569E-02
RMM:   3    -0.354939568627E+03    0.14857E-04   -0.12155E-05  4741   0.114E-02
 A1 parameter for BJ-Damping is not reasonable. Taking default.
  32 F= -.36512215E+03 E0= -.36510235E+03  d E =0.870081E-03  mag=     0.4988
 BRION: g(F)=  0.679E-02 g(S)=  0.000E+00 retain N=  1 mean eig= 5.40
 eig:   5.402
 bond charge predicted
       N       E                     dE             d eps       ncg     rms          rms(c)
DAV:   1    -0.354947743441E+03   -0.81600E-02   -0.14083E-01  9296   0.776E-01    0.779E-02
RMM:   2    -0.354948065914E+03   -0.32247E-03   -0.29050E-03  8500   0.108E-01    0.102E-01
RMM:   3    -0.354948198194E+03   -0.13228E-03   -0.12472E-04  5206   0.334E-02    0.182E-01
RMM:   4    -0.354948014073E+03    0.18412E-03   -0.48251E-05  5015   0.187E-02    0.575E-02
RMM:   5    -0.354948010273E+03    0.37997E-05   -0.22523E-05  4673   0.128E-02
 A1 parameter for BJ-Damping is not reasonable. Taking default.
  33 F= -.36513011E+03 E0= -.36511030E+03  d E =-.796415E-02  mag=     0.4986
 BRION: g(F)=  0.690E-02 g(S)=  0.000E+00 retain N=  2 mean eig= 4.18
 eig:   4.178  4.178
 bond charge predicted
       N       E                     dE             d eps       ncg     rms          rms(c)
DAV:   1    -0.354937074906E+03    0.10939E-01   -0.21885E-01  9296   0.969E-01    0.976E-02
RMM:   2    -0.354937874346E+03   -0.79944E-03   -0.47501E-03  8826   0.141E-01    0.241E-01
RMM:   3    -0.354937630528E+03    0.24382E-03   -0.22170E-04  5724   0.426E-02    0.159E-01
RMM:   4    -0.354937598935E+03    0.31593E-04   -0.92067E-05  5176   0.243E-02
 A1 parameter for BJ-Damping is not reasonable. Taking default.
  34 F= -.36512029E+03 E0= -.36510050E+03  d E =0.982098E-02  mag=     0.4986
 BRION: g(F)=  0.677E-02 g(S)=  0.000E+00 retain N=  2 mean eig= 3.58
 eig:   6.898  0.259
 bond charge predicted
       N       E                     dE             d eps       ncg     rms          rms(c)
DAV:   1    -0.354938966811E+03   -0.13363E-02   -0.76345E-03  8888   0.187E-01    0.630E-02
RMM:   2    -0.354939718957E+03   -0.75215E-03   -0.47241E-04  7029   0.442E-02    0.312E-01
RMM:   3    -0.354939087285E+03    0.63167E-03   -0.12820E-04  5324   0.262E-02    0.139E-01
RMM:   4    -0.354938974762E+03    0.11252E-03   -0.32271E-05  5019   0.160E-02    0.509E-02
RMM:   5    -0.354938964236E+03    0.10526E-04   -0.11304E-05  4503   0.958E-03
 A1 parameter for BJ-Damping is not reasonable. Taking default.
  35 F= -.36512157E+03 E0= -.36510178E+03  d E =-.128464E-02  mag=     0.4985
 BRION: g(F)=  0.673E-02 g(S)=  0.000E+00 retain N=  3 mean eig= 3.14
 eig:   7.134  1.977  0.308
 bond charge predicted
       N       E                     dE             d eps       ncg     rms          rms(c)
DAV:   1    -0.354930758642E+03    0.82161E-02   -0.15088E-01  9296   0.809E-01    0.856E-02
RMM:   2    -0.354931143437E+03   -0.38480E-03   -0.32525E-03  8580   0.116E-01    0.136E-01
RMM:   3    -0.354931105269E+03    0.38168E-04   -0.14477E-04  5359   0.342E-02
 A1 parameter for BJ-Damping is not reasonable. Taking default.
  36 F= -.36511418E+03 E0= -.36509438E+03  d E =0.739701E-02  mag=     0.4984
 BRION: g(F)=  0.680E-02 g(S)=  0.000E+00 retain N=  2 mean eig= 1.65
 eig:   0.249  3.060
 bond charge predicted
       N       E                     dE             d eps       ncg     rms          rms(c)
DAV:   1    -0.354947350761E+03   -0.16207E-01   -0.64325E-01  9280   0.166E+00    0.197E-01
RMM:   2    -0.354964824290E+03   -0.17474E-01   -0.15470E-02  9198   0.255E-01    0.151E+00
RMM:   3    -0.354948584713E+03    0.16240E-01   -0.15107E-03  8834   0.932E-02    0.114E-01
RMM:   4    -0.354948484024E+03    0.10069E-03   -0.24657E-04  6252   0.393E-02    0.906E-02
RMM:   5    -0.354948473676E+03    0.10348E-04   -0.74542E-05  5098   0.262E-02
 A1 parameter for BJ-Damping is not reasonable. Taking default.
  37 F= -.36513055E+03 E0= -.36511075E+03  d E =-.163737E-01  mag=     0.4980
 BRION: g(F)=  0.702E-02 g(S)=  0.000E+00 retain N=  1 mean eig= 1.23
 eig:   1.232
 bond charge predicted
       N       E                     dE             d eps       ncg     rms          rms(c)
DAV:   1    -0.354937836792E+03    0.10647E-01   -0.23718E-01  9304   0.101E+00    0.113E-01
RMM:   2    -0.354938602891E+03   -0.76610E-03   -0.54885E-03  8852   0.152E-01    0.198E-01
RMM:   3    -0.354938428948E+03    0.17394E-03   -0.33950E-04  6448   0.472E-02    0.166E-01
RMM:   4    -0.354938349343E+03    0.79605E-04   -0.63128E-05  5053   0.218E-02
 A1 parameter for BJ-Damping is not reasonable. Taking default.
  38 F= -.36512100E+03 E0= -.36510120E+03  d E =0.954916E-02  mag=     0.4978
 BRION: g(F)=  0.674E-02 g(S)=  0.000E+00 retain N=  2 mean eig= 3.15
 eig:   5.342  0.949
 bond charge predicted
       N       E                     dE             d eps       ncg     rms          rms(c)
DAV:   1    -0.354944289451E+03   -0.58605E-02   -0.84042E-02  9288   0.597E-01    0.101E-01
RMM:   2    -0.354949484808E+03   -0.51954E-02   -0.22792E-03  9026   0.982E-02    0.836E-01
RMM:   3    -0.354944424155E+03    0.50607E-02   -0.41056E-04  7036   0.466E-02    0.755E-02
RMM:   4    -0.354944409935E+03    0.14220E-04   -0.64797E-05  5107   0.244E-02
 A1 parameter for BJ-Damping is not reasonable. Taking default.
  39 F= -.36512667E+03 E0= -.36510684E+03  d E =-.567124E-02  mag=     0.4977
 BRION: g(F)=  0.673E-02 g(S)=  0.000E+00 retain N=  3 mean eig= 4.13
 eig:   0.953  5.724  5.724
 bond charge predicted
       N       E                     dE             d eps       ncg     rms          rms(c)
DAV:   1    -0.354949935788E+03   -0.55116E-02   -0.31976E-01  9288   0.116E+00    0.133E-01
RMM:   2    -0.354951227207E+03   -0.12914E-02   -0.61418E-03  8954   0.168E-01    0.333E-01
RMM:   3    -0.354950627447E+03    0.59976E-03   -0.35466E-04  6469   0.486E-02    0.202E-01
RMM:   4    -0.354950506459E+03    0.12099E-03   -0.11702E-04  5409   0.278E-02    0.142E-01
RMM:   5    -0.354950427278E+03    0.79181E-04   -0.75382E-05  5203   0.221E-02
 A1 parameter for BJ-Damping is not reasonable. Taking default.
  40 F= -.36513225E+03 E0= -.36511242E+03  d E =-.557568E-02  mag=     0.4970
 BRION: g(F)=  0.681E-02 g(S)=  0.000E+00 retain N=  2 mean eig= 5.11
 eig:   2.347  7.880
 bond charge predicted
       N       E                     dE             d eps       ncg     rms          rms(c)
DAV:   1    -0.354948800082E+03    0.17064E-02   -0.20913E-01  9336   0.942E-01    0.117E-01
RMM:   2    -0.354949763189E+03   -0.96311E-03   -0.45772E-03  8990   0.143E-01    0.299E-01
RMM:   3    -0.354949139821E+03    0.62337E-03   -0.31602E-04  6389   0.465E-02    0.802E-02
RMM:   4    -0.354949159094E+03   -0.19274E-04   -0.72852E-05  5110   0.235E-02
 A1 parameter for BJ-Damping is not reasonable. Taking default.
  41 F= -.36513118E+03 E0= -.36511136E+03  d E =0.107096E-02  mag=     0.4967
 BRION: g(F)=  0.684E-02 g(S)=  0.000E+00 retain N=  1 mean eig= 5.37
 eig:   5.372
 bond charge predicted
       N       E                     dE             d eps       ncg     rms          rms(c)
DAV:   1    -0.354956597325E+03   -0.74575E-02   -0.20241E-01  9296   0.932E-01    0.129E-01
RMM:   2    -0.354963451167E+03   -0.68538E-02   -0.45726E-03  9125   0.142E-01    0.970E-01
RMM:   3    -0.354956970107E+03    0.64811E-02   -0.59024E-04  7727   0.569E-02    0.107E-01
RMM:   4    -0.354956990457E+03   -0.20351E-04   -0.15559E-04  5676   0.311E-02
 A1 parameter for BJ-Damping is not reasonable. Taking default.
  42 F= -.36513854E+03 E0= -.36511874E+03  d E =-.736106E-02  mag=     0.4962
 BRION: g(F)=  0.698E-02 g(S)=  0.000E+00 retain N=  2 mean eig= 4.43
 eig:   4.430  4.430
 bond charge predicted
       N       E                     dE             d eps       ncg     rms          rms(c)
DAV:   1    -0.354950022014E+03    0.69481E-02   -0.11038E-01  9312   0.695E-01    0.795E-02
RMM:   2    -0.354951150302E+03   -0.11283E-02   -0.25257E-03  8665   0.105E-01    0.351E-01
RMM:   3    -0.354950341681E+03    0.80862E-03   -0.18549E-04  5636   0.349E-02    0.136E-01
RMM:   4    -0.354950261029E+03    0.80652E-04   -0.54825E-05  5107   0.208E-02
 A1 parameter for BJ-Damping is not reasonable. Taking default.
  43 F= -.36513213E+03 E0= -.36511232E+03  d E =0.640395E-02  mag=     0.4960
 BRION: g(F)=  0.682E-02 g(S)=  0.000E+00 retain N=  2 mean eig= 2.43
 eig:   4.648  0.208
 bond charge predicted
       N       E                     dE             d eps       ncg     rms          rms(c)
DAV:   1    -0.354950713601E+03   -0.37192E-03   -0.12978E-02  9192   0.238E-01    0.473E-02
RMM:   2    -0.354950764563E+03   -0.50962E-04   -0.27979E-04  5606   0.378E-02    0.803E-02
RMM:   3    -0.354950747076E+03    0.17486E-04   -0.27050E-05  4889   0.171E-02
 A1 parameter for BJ-Damping is not reasonable. Taking default.
  44 F= -.36513251E+03 E0= -.36511271E+03  d E =-.373524E-03  mag=     0.4960
 BRION: g(F)=  0.677E-02 g(S)=  0.000E+00 retain N=  3 mean eig= 3.43
 eig:   0.320  4.980  4.980
 bond charge predicted
       N       E                     dE             d eps       ncg     rms          rms(c)
DAV:   1    -0.354938572536E+03    0.12192E-01   -0.66327E-01  9280   0.169E+00    0.242E-01
RMM:   2    -0.354941616226E+03   -0.30437E-02   -0.13860E-02  9100   0.239E-01    0.591E-01
RMM:   3    -0.354939772147E+03    0.18441E-02   -0.78267E-04  7796   0.737E-02    0.227E-01
RMM:   4    -0.354940725473E+03   -0.95333E-03   -0.30115E-04  6389   0.337E-02    0.411E-01
RMM:   5    -0.354939804658E+03    0.92081E-03   -0.31135E-04  6496   0.363E-02    0.224E-01
RMM:   6    -0.354939735787E+03    0.68871E-04   -0.15789E-04  5393   0.312E-02
 A1 parameter for BJ-Damping is not reasonable. Taking default.
  45 F= -.36512163E+03 E0= -.36510190E+03  d E =0.108789E-01  mag=     0.4982
 BRION: g(F)=  0.702E-02 g(S)=  0.000E+00 retain N=  2 mean eig= 5.37
 eig:   5.367  5.367
 bond charge predicted
       N       E                     dE             d eps       ncg     rms          rms(c)
DAV:   1    -0.354956716488E+03   -0.16912E-01   -0.10897E+00  9408   0.218E+00    0.261E-01
RMM:   2    -0.354961493359E+03   -0.47769E-02   -0.23690E-02  9116   0.314E-01    0.653E-01
RMM:   3    -0.354959459291E+03    0.20341E-02   -0.14529E-03  8404   0.980E-02    0.390E-01
RMM:   4    -0.354959288667E+03    0.17062E-03   -0.44201E-04  7350   0.440E-02    0.356E-01
RMM:   5    -0.354958630481E+03    0.65819E-03   -0.26117E-04  6220   0.373E-02    0.186E-01
RMM:   6    -0.354958486192E+03    0.14429E-03   -0.14986E-04  5347   0.312E-02    0.113E-01
RMM:   7    -0.354958478072E+03    0.81210E-05   -0.14230E-04  5367   0.286E-02
 A1 parameter for BJ-Damping is not reasonable. Taking default.
  46 F= -.36513987E+03 E0= -.36512008E+03  d E =-.182394E-01  mag=     0.4972
 BRION: g(F)=  0.717E-02 g(S)=  0.000E+00 retain N=  1 mean eig= 1.00
 eig:   1.005
 bond charge predicted
       N       E                     dE             d eps       ncg     rms          rms(c)
DAV:   1    -0.354952005431E+03    0.64808E-02   -0.21500E-01  9424   0.959E-01    0.132E-01
RMM:   2    -0.354954613705E+03   -0.26083E-02   -0.52401E-03  8974   0.142E-01    0.558E-01
RMM:   3    -0.354952658731E+03    0.19550E-02   -0.46615E-04  6931   0.516E-02    0.250E-01
RMM:   4    -0.354952301252E+03    0.35748E-03   -0.10569E-04  5241   0.264E-02    0.984E-02
RMM:   5    -0.354952306380E+03   -0.51274E-05   -0.74810E-05  5115   0.208E-02
 A1 parameter for BJ-Damping is not reasonable. Taking default.
  47 F= -.36513380E+03 E0= -.36511402E+03  d E =0.606935E-02  mag=     0.4974
 BRION: g(F)=  0.693E-02 g(S)=  0.000E+00 retain N=  1 mean eig= 0.57
 eig:   0.565
 bond charge predicted
       N       E                     dE             d eps       ncg     rms          rms(c)
DAV:   1    -0.354948514425E+03    0.37868E-02   -0.29393E-01  9296   0.112E+00    0.157E-01
RMM:   2    -0.354949746942E+03   -0.12325E-02   -0.55485E-03  9007   0.153E-01    0.362E-01
RMM:   3    -0.354949036876E+03    0.71007E-03   -0.32484E-04  6421   0.496E-02    0.170E-01
RMM:   4    -0.354949393397E+03   -0.35652E-03   -0.13646E-04  5451   0.276E-02    0.283E-01
RMM:   5    -0.354948903837E+03    0.48956E-03   -0.11240E-04  5316   0.259E-02    0.925E-02
RMM:   6    -0.354948934662E+03   -0.30824E-04   -0.83470E-05  5167   0.189E-02
 A1 parameter for BJ-Damping is not reasonable. Taking default.
  48 F= -.36513036E+03 E0= -.36511054E+03  d E =0.343475E-02  mag=     0.4984
 BRION: g(F)=  0.696E-02 g(S)=  0.000E+00 retain N=  2 mean eig= 4.34
 eig:   1.185  7.496
 bond charge predicted
       N       E                     dE             d eps       ncg     rms          rms(c)
DAV:   1    -0.354949528330E+03   -0.62449E-03   -0.23194E-02  9560   0.317E-01    0.618E-02
RMM:   2    -0.354950452334E+03   -0.92400E-03   -0.76218E-04  7519   0.536E-02    0.345E-01
RMM:   3    -0.354949644286E+03    0.80805E-03   -0.12042E-04  5362   0.260E-02    0.130E-01
RMM:   4    -0.354949541324E+03    0.10296E-03   -0.41468E-05  5008   0.176E-02    0.372E-02
RMM:   5    -0.354949541511E+03   -0.18675E-06   -0.15007E-05  4449   0.101E-02
 A1 parameter for BJ-Damping is not reasonable. Taking default.
  49 F= -.36513102E+03 E0= -.36511123E+03  d E =-.653045E-03  mag=     0.4988
 BRION: g(F)=  0.707E-02 g(S)=  0.000E+00 retain N=  1 mean eig= 2.99
 eig:   2.992
 bond charge predicted
       N       E                     dE             d eps       ncg     rms          rms(c)
DAV:   1    -0.354947277780E+03    0.22635E-02   -0.16208E+00  9280   0.265E+00    0.299E-01
RMM:   2    -0.354951898334E+03   -0.46206E-02   -0.29541E-02  9081   0.355E-01    0.600E-01
RMM:   3    -0.354950322678E+03    0.15757E-02   -0.15500E-03  8255   0.105E-01    0.376E-01
RMM:   4    -0.354950441101E+03   -0.11842E-03   -0.38851E-04  6969   0.419E-02    0.355E-01
RMM:   5    -0.354950099136E+03    0.34197E-03   -0.43366E-04  7267   0.447E-02    0.315E-01
RMM:   6    -0.354950015535E+03    0.83601E-04   -0.24676E-04  6253   0.351E-02
 A1 parameter for BJ-Damping is not reasonable. Taking default.
  50 F= -.36513070E+03 E0= -.36511100E+03  d E =0.317285E-03  mag=     0.5003
 BRION: g(F)=  0.785E-02 g(S)=  0.000E+00 retain N=  1 mean eig= 5.75
 eig:   5.751
 bond charge predicted
       N       E                     dE             d eps       ncg     rms          rms(c)
DAV:   1    -0.354948648199E+03    0.14509E-02   -0.48575E+00  9296   0.457E+00    0.508E-01
RMM:   2    -0.354960355763E+03   -0.11708E-01   -0.89584E-02  9181   0.613E-01    0.903E-01
RMM:   3    -0.354957459824E+03    0.28959E-02   -0.51506E-03  8989   0.183E-01    0.561E-01
RMM:   4    -0.354960633620E+03   -0.31738E-02   -0.13789E-03  8704   0.710E-02    0.869E-01
RMM:   5    -0.354956662201E+03    0.39714E-02   -0.93300E-04  8489   0.604E-02    0.505E-01
RMM:   6    -0.354955924605E+03    0.73760E-03   -0.92751E-04  8343   0.598E-02    0.360E-01
RMM:   7    -0.354955725976E+03    0.19863E-03   -0.68146E-04  7644   0.470E-02    0.253E-01
RMM:   8    -0.354955330071E+03    0.39590E-03   -0.32013E-04  6499   0.368E-02    0.134E-01
RMM:   9    -0.354955222297E+03    0.10777E-03   -0.84626E-05  5176   0.242E-02    0.578E-02
RMM:  10    -0.354955205461E+03    0.16836E-04   -0.26101E-05  4685   0.146E-02
 A1 parameter for BJ-Damping is not reasonable. Taking default.
  51 F= -.36513687E+03 E0= -.36511706E+03  d E =-.617119E-02  mag=     0.4987
 BRION: g(F)=  0.697E-02 g(S)=  0.000E+00 retain N=  1 mean eig= 7.11
 eig:   7.113
 bond charge predicted
       N       E                     dE             d eps       ncg     rms          rms(c)
DAV:   1    -0.354961908125E+03   -0.66858E-02   -0.12463E-01  9624   0.728E-01    0.746E-02
RMM:   2    -0.354962159747E+03   -0.25162E-03   -0.26094E-03  8451   0.101E-01    0.601E-02
RMM:   3    -0.354962200756E+03   -0.41009E-04   -0.11600E-04  5231   0.320E-02
 A1 parameter for BJ-Damping is not reasonable. Taking default.
  52 F= -.36514358E+03 E0= -.36512379E+03  d E =-.670566E-02  mag=     0.4982
 BRION: g(F)=  0.716E-02 g(S)=  0.000E+00 retain N=  2 mean eig= 4.34
 eig:   7.137  1.540
 bond charge predicted
       N       E                     dE             d eps       ncg     rms          rms(c)
DAV:   1    -0.354948144732E+03    0.14015E-01   -0.46987E-01  9280   0.141E+00    0.143E-01
RMM:   2    -0.354951892638E+03   -0.37479E-02   -0.10010E-02  9075   0.197E-01    0.643E-01
RMM:   3    -0.354949081943E+03    0.28107E-02   -0.57304E-04  7320   0.644E-02    0.127E-01
RMM:   4    -0.354949212888E+03   -0.13095E-03   -0.18570E-04  5813   0.300E-02    0.182E-01
RMM:   5    -0.354949001925E+03    0.21096E-03   -0.92707E-05  5272   0.238E-02    0.663E-02
RMM:   6    -0.354948990943E+03    0.10982E-04   -0.30310E-05  4909   0.141E-02
 A1 parameter for BJ-Damping is not reasonable. Taking default.
  53 F= -.36513085E+03 E0= -.36511104E+03  d E =0.127254E-01  mag=     0.4981
 BRION: g(F)=  0.677E-02 g(S)=  0.000E+00 retain N=  1 mean eig= 0.68
 eig:   0.681
 bond charge predicted
       N       E                     dE             d eps       ncg     rms          rms(c)
DAV:   1    -0.354939756592E+03    0.92453E-02   -0.27952E-01  9352   0.108E+00    0.115E-01
RMM:   2    -0.354940470853E+03   -0.71426E-03   -0.55362E-03  8800   0.143E-01    0.200E-01
RMM:   3    -0.354940306337E+03    0.16452E-03   -0.31273E-04  6202   0.460E-02    0.120E-01
RMM:   4    -0.354940571175E+03   -0.26484E-03   -0.83363E-05  5174   0.207E-02    0.242E-01
RMM:   5    -0.354940216988E+03    0.35419E-03   -0.48961E-05  5060   0.206E-02    0.728E-02
RMM:   6    -0.354940215754E+03    0.12336E-05   -0.21970E-05  4765   0.126E-02
 A1 parameter for BJ-Damping is not reasonable. Taking default.
  54 F= -.36512232E+03 E0= -.36510253E+03  d E =0.853270E-02  mag=     0.4988
 BRION: g(F)=  0.662E-02 g(S)=  0.000E+00 retain N=  2 mean eig= 1.08
 eig:   1.175  0.983
 bond charge predicted
       N       E                     dE             d eps       ncg     rms          rms(c)
DAV:   1    -0.354939757199E+03    0.45979E-03   -0.45189E-02  9600   0.435E-01    0.579E-02
RMM:   2    -0.354939958708E+03   -0.20151E-03   -0.79764E-04  7445   0.591E-02    0.146E-01
RMM:   3    -0.354939864419E+03    0.94289E-04   -0.64292E-05  5070   0.244E-02
 A1 parameter for BJ-Damping is not reasonable. Taking default.
  55 F= -.36512185E+03 E0= -.36510208E+03  d E =0.473225E-03  mag=     0.4991
 BRION: g(F)=  0.664E-02 g(S)=  0.000E+00
 BRIONS problems: POTIM should be increased
 retain N=  1 mean eig=13.47
 eig:  13.470
 bond charge predicted
       N       E                     dE             d eps       ncg     rms          rms(c)
DAV:   1    -0.354946854136E+03   -0.68954E-02   -0.35603E-01  9312   0.120E+00    0.127E-01
RMM:   2    -0.354950369593E+03   -0.35155E-02   -0.71312E-03  8938   0.159E-01    0.639E-01
RMM:   3    -0.354947531909E+03    0.28377E-02   -0.50465E-04  7062   0.565E-02    0.129E-01
RMM:   4    -0.354947580637E+03   -0.48728E-04   -0.13816E-04  5536   0.281E-02
 A1 parameter for BJ-Damping is not reasonable. Taking default.
  56 F= -.36512947E+03 E0= -.36510969E+03  d E =-.762820E-02  mag=     0.4992
 BRION: g(F)=  0.686E-02 g(S)=  0.000E+00 retain N=  1 mean eig= 1.07
 eig:   1.065
 bond charge predicted
       N       E                     dE             d eps       ncg     rms          rms(c)
DAV:   1    -0.354938030402E+03    0.95015E-02   -0.91146E-01  9384   0.193E+00    0.184E-01
RMM:   2    -0.354940202836E+03   -0.21724E-02   -0.16997E-02  8996   0.246E-01    0.323E-01
RMM:   3    -0.354940144459E+03    0.58378E-04   -0.93700E-04  7626   0.766E-02
 A1 parameter for BJ-Damping is not reasonable. Taking default.
  57 F= -.36512187E+03 E0= -.36510212E+03  d E =0.760700E-02  mag=     0.4994
 BRION: g(F)=  0.669E-02 g(S)=  0.000E+00 retain N=  2 mean eig= 3.93
 eig:   1.760  6.103
 bond charge predicted
       N       E                     dE             d eps       ncg     rms          rms(c)
DAV:   1    -0.354928893564E+03    0.11309E-01   -0.38373E-01  9328   0.127E+00    0.317E-01
RMM:   2    -0.354973975881E+03   -0.45082E-01   -0.12528E-02  9282   0.239E-01    0.251E+00
RMM:   3    -0.354930735655E+03    0.43240E-01   -0.33747E-03  9279   0.122E-01    0.462E-01
RMM:   4    -0.354929175952E+03    0.15597E-02   -0.90342E-04  7985   0.684E-02    0.181E-01
RMM:   5    -0.354929058728E+03    0.11722E-03   -0.10926E-04  5293   0.278E-02    0.120E-01
RMM:   6    -0.354929009059E+03    0.49669E-04   -0.58431E-05  5087   0.227E-02
 A1 parameter for BJ-Damping is not reasonable. Taking default.
  58 F= -.36511171E+03 E0= -.36509194E+03  d E =0.101602E-01  mag=     0.5002
 BRION: g(F)=  0.657E-02 g(S)=  0.000E+00 retain N=  3 mean eig= 2.35
 eig:   3.495  3.495  0.066
 bond charge predicted
       N       E                     dE             d eps       ncg     rms          rms(c)
DAV:   1    -0.354925984095E+03    0.30746E-02   -0.90750E-02  9416   0.615E-01    0.108E-01
RMM:   2    -0.354927779092E+03   -0.17950E-02   -0.17745E-03  8717   0.918E-02    0.486E-01
RMM:   3    -0.354926231419E+03    0.15477E-02   -0.17994E-04  5609   0.343E-02    0.168E-01
RMM:   4    -0.354926116301E+03    0.11512E-03   -0.13543E-04  5467   0.282E-02    0.992E-02
RMM:   5    -0.354926095390E+03    0.20911E-04   -0.40219E-05  4971   0.153E-02
 A1 parameter for BJ-Damping is not reasonable. Taking default.
  59 F= -.36510920E+03 E0= -.36508943E+03  d E =0.250719E-02  mag=     0.5006
 BRION: g(F)=  0.663E-02 g(S)=  0.000E+00 retain N=  2 mean eig= 3.50
 eig:   1.483  5.525
 bond charge predicted
       N       E                     dE             d eps       ncg     rms          rms(c)
DAV:   1    -0.354927975398E+03   -0.18591E-02   -0.11145E-01  9280   0.680E-01    0.783E-02
RMM:   2    -0.354928757297E+03   -0.78190E-03   -0.21245E-03  8607   0.975E-02    0.301E-01
RMM:   3    -0.354928121121E+03    0.63618E-03   -0.18814E-04  5663   0.354E-02    0.342E-02
RMM:   4    -0.354928114916E+03    0.62048E-05   -0.35117E-05  5017   0.170E-02
 A1 parameter for BJ-Damping is not reasonable. Taking default.
  60 F= -.36511085E+03 E0= -.36509107E+03  d E =-.164711E-02  mag=     0.5010
 BRION: g(F)=  0.664E-02 g(S)=  0.000E+00 retain N=  3 mean eig= 2.15
 eig:   2.067  2.067  2.326
 bond charge predicted
       N       E                     dE             d eps       ncg     rms          rms(c)
DAV:   1    -0.354932084401E+03   -0.39633E-02   -0.10673E+00  9328   0.211E+00    0.224E-01
RMM:   2    -0.354933689058E+03   -0.16047E-02   -0.17711E-02  8995   0.283E-01    0.196E-01
RMM:   3    -0.354934634762E+03   -0.94570E-03   -0.10156E-03  8026   0.816E-02    0.384E-01
RMM:   4    -0.354934222080E+03    0.41268E-03   -0.32281E-04  6588   0.358E-02    0.336E-01
RMM:   5    -0.354933651277E+03    0.57080E-03   -0.15822E-04  5608   0.316E-02    0.185E-01
RMM:   6    -0.354933551213E+03    0.10006E-03   -0.14292E-04  5333   0.294E-02    0.115E-01
RMM:   7    -0.354933480268E+03    0.70946E-04   -0.81822E-05  5033   0.244E-02
 A1 parameter for BJ-Damping is not reasonable. Taking default.
  61 F= -.36511508E+03 E0= -.36509532E+03  d E =-.422873E-02  mag=     0.5024
 BRION: g(F)=  0.668E-02 g(S)=  0.000E+00
 BRIONS problems: POTIM should be increased
 retain N=  1 mean eig= 9.86
 eig:   9.865
 bond charge predicted
       N       E                     dE             d eps       ncg     rms          rms(c)
DAV:   1    -0.354933970366E+03   -0.41915E-03   -0.10841E+00  9376   0.210E+00    0.207E-01
RMM:   2    -0.354936280224E+03   -0.23099E-02   -0.18783E-02  8997   0.273E-01    0.353E-01
RMM:   3    -0.354936202713E+03    0.77511E-04   -0.10603E-03  7889   0.824E-02    0.339E-01
RMM:   4    -0.354935838908E+03    0.36381E-03   -0.26117E-04  6258   0.351E-02    0.265E-01
RMM:   5    -0.354935468282E+03    0.37063E-03   -0.24194E-04  6091   0.365E-02    0.144E-01
RMM:   6    -0.354935442455E+03    0.25827E-04   -0.82325E-05  5096   0.227E-02
 A1 parameter for BJ-Damping is not reasonable. Taking default.
  62 F= -.36511774E+03 E0= -.36509795E+03  d E =-.265973E-02  mag=     0.5025
 BRION: g(F)=  0.665E-02 g(S)=  0.000E+00 retain N=  1 mean eig= 0.12
 eig:   0.124
 bond charge predicted
       N       E                     dE             d eps       ncg     rms          rms(c)
DAV:   1    -0.354941608380E+03   -0.61401E-02   -0.12624E-01  9312   0.729E-01    0.885E-02
RMM:   2    -0.354942250217E+03   -0.64184E-03   -0.25349E-03  8826   0.111E-01    0.248E-01
RMM:   3    -0.354941838522E+03    0.41170E-03   -0.17519E-04  5474   0.373E-02    0.918E-02
RMM:   4    -0.354941929265E+03   -0.90743E-04   -0.64895E-05  5049   0.209E-02
 A1 parameter for BJ-Damping is not reasonable. Taking default.
  63 F= -.36512366E+03 E0= -.36510387E+03  d E =-.592173E-02  mag=     0.5023
 BRION: g(F)=  0.666E-02 g(S)=  0.000E+00 retain N=  2 mean eig= 3.34
 eig:   5.256  1.429
 bond charge predicted
       N       E                     dE             d eps       ncg     rms          rms(c)
DAV:   1    -0.354944822781E+03   -0.29843E-02   -0.44160E-02  9280   0.430E-01    0.844E-02
RMM:   2    -0.354946079879E+03   -0.12571E-02   -0.95767E-04  8382   0.704E-02    0.416E-01
RMM:   3    -0.354944943671E+03    0.11362E-02   -0.12019E-04  5140   0.295E-02    0.135E-01
RMM:   4    -0.354944887847E+03    0.55824E-04   -0.75164E-05  5199   0.224E-02
 A1 parameter for BJ-Damping is not reasonable. Taking default.
  64 F= -.36512631E+03 E0= -.36510653E+03  d E =-.265330E-02  mag=     0.5020
 BRION: g(F)=  0.668E-02 g(S)=  0.000E+00 retain N=  3 mean eig= 2.95
 eig:   5.621  1.213  2.011
 bond charge predicted
       N       E                     dE             d eps       ncg     rms          rms(c)
DAV:   1    -0.354942588203E+03    0.23555E-02   -0.37339E-02  9296   0.394E-01    0.522E-02
RMM:   2    -0.354943435535E+03   -0.84733E-03   -0.81911E-04  7928   0.618E-02    0.323E-01
RMM:   3    -0.354942694158E+03    0.74138E-03   -0.98012E-05  5150   0.269E-02    0.102E-01
RMM:   4    -0.354942643141E+03    0.51016E-04   -0.36380E-05  5030   0.171E-02
 A1 parameter for BJ-Damping is not reasonable. Taking default.
  65 F= -.36512432E+03 E0= -.36510454E+03  d E =0.198849E-02  mag=     0.5018
 BRION: g(F)=  0.668E-02 g(S)=  0.000E+00 retain N=  2 mean eig= 1.44
 eig:   1.443  1.443
 bond charge predicted
       N       E                     dE             d eps       ncg     rms          rms(c)
DAV:   1    -0.354945640121E+03   -0.29460E-02   -0.72028E-02  9312   0.537E-01    0.573E-02
RMM:   2    -0.354945841281E+03   -0.20116E-03   -0.13893E-03  7609   0.697E-02    0.121E-01
RMM:   3    -0.354945752067E+03    0.89213E-04   -0.80106E-05  5081   0.253E-02
 A1 parameter for BJ-Damping is not reasonable. Taking default.
  66 F= -.36512742E+03 E0= -.36510763E+03  d E =-.309517E-02  mag=     0.5015
 BRION: g(F)=  0.666E-02 g(S)=  0.000E+00 retain N=  3 mean eig= 1.79
 eig:   1.982  1.982  1.416
 bond charge predicted
       N       E                     dE             d eps       ncg     rms          rms(c)
DAV:   1    -0.354943063658E+03    0.27776E-02   -0.11900E+00  9376   0.220E+00    0.227E-01
RMM:   2    -0.354946405734E+03   -0.33421E-02   -0.19331E-02  9050   0.283E-01    0.523E-01
RMM:   3    -0.354945146090E+03    0.12596E-02   -0.10966E-03  8152   0.838E-02    0.303E-01
RMM:   4    -0.354944716239E+03    0.42985E-03   -0.33376E-04  6688   0.381E-02    0.177E-01
RMM:   5    -0.354944606394E+03    0.10984E-03   -0.18797E-04  5669   0.316E-02    0.133E-01
RMM:   6    -0.354944615650E+03   -0.92557E-05   -0.20832E-04  5859   0.276E-02
 A1 parameter for BJ-Damping is not reasonable. Taking default.
  67 F= -.36512717E+03 E0= -.36510737E+03  d E =0.249742E-03  mag=     0.5004
 BRION: g(F)=  0.677E-02 g(S)=  0.000E+00
 BRIONS problems: POTIM should be increased
 retain N=  1 mean eig= 9.75
 eig:   9.748
 bond charge predicted
       N       E                     dE             d eps       ncg     rms          rms(c)
DAV:   1    -0.354948252550E+03   -0.36462E-02   -0.38763E+00  9344   0.398E+00    0.416E-01
RMM:   2    -0.354956026353E+03   -0.77738E-02   -0.65289E-02  9161   0.531E-01    0.620E-01
RMM:   3    -0.354955379606E+03    0.64675E-03   -0.40654E-03  9065   0.159E-01    0.516E-01
RMM:   4    -0.354958159129E+03   -0.27795E-02   -0.12523E-03  8572   0.662E-02    0.847E-01
RMM:   5    -0.354953465804E+03    0.46933E-02   -0.52004E-04  7796   0.471E-02    0.198E-01
RMM:   6    -0.354953604407E+03   -0.13860E-03   -0.59925E-04  7573   0.468E-02    0.237E-01
RMM:   7    -0.354953329469E+03    0.27494E-03   -0.26572E-04  6193   0.330E-02    0.127E-01
RMM:   8    -0.354953260713E+03    0.68756E-04   -0.12921E-04  5304   0.273E-02
 A1 parameter for BJ-Damping is not reasonable. Taking default.
  68 F= -.36513385E+03 E0= -.36511404E+03  d E =-.668371E-02  mag=     0.4989
 BRION: g(F)=  0.680E-02 g(S)=  0.000E+00
 BRIONS problems: POTIM should be increased
 retain N=  1 mean eig=16.46
 eig:  16.459
 bond charge predicted
       N       E                     dE             d eps       ncg     rms          rms(c)
DAV:   1    -0.354951090441E+03    0.22390E-02   -0.21973E+00  9368   0.298E+00    0.282E-01
RMM:   2    -0.354954999691E+03   -0.39093E-02   -0.36312E-02  9078   0.381E-01    0.383E-01
RMM:   3    -0.354956262229E+03   -0.12625E-02   -0.19852E-03  8572   0.113E-01    0.568E-01
RMM:   4    -0.354954581852E+03    0.16804E-02   -0.56820E-04  7738   0.498E-02    0.312E-01
RMM:   5    -0.354954084515E+03    0.49734E-03   -0.36589E-04  6903   0.396E-02    0.191E-01
RMM:   6    -0.354953960407E+03    0.12411E-03   -0.20633E-04  5780   0.317E-02    0.141E-01
RMM:   7    -0.354953870718E+03    0.89688E-04   -0.16120E-04  5308   0.311E-02
 A1 parameter for BJ-Damping is not reasonable. Taking default.
  69 F= -.36513553E+03 E0= -.36511575E+03  d E =-.168309E-02  mag=     0.4979
 BRION: g(F)=  0.694E-02 g(S)=  0.000E+00 retain N=  1 mean eig= 3.90
 eig:   3.898
 bond charge predicted
       N       E                     dE             d eps       ncg     rms          rms(c)
DAV:   1    -0.354951832664E+03    0.21277E-02   -0.57171E+00  9352   0.482E+00    0.492E-01
RMM:   2    -0.354961357524E+03   -0.95249E-02   -0.96230E-02  9143   0.634E-01    0.518E-01
RMM:   3    -0.354968626643E+03   -0.72691E-02   -0.57173E-03  9095   0.188E-01    0.112E+00
RMM:   4    -0.354961508940E+03    0.71177E-02   -0.15714E-03  8733   0.811E-02    0.584E-01
RMM:   5    -0.354959916756E+03    0.15922E-02   -0.99063E-04  8177   0.601E-02    0.302E-01
RMM:   6    -0.354959781788E+03    0.13497E-03   -0.48379E-04  7507   0.443E-02    0.259E-01
RMM:   7    -0.354959492140E+03    0.28965E-03   -0.42370E-04  7349   0.410E-02    0.146E-01
RMM:   8    -0.354959408056E+03    0.84084E-04   -0.16066E-04  5557   0.293E-02
 A1 parameter for BJ-Damping is not reasonable. Taking default.
  70 F= -.36513896E+03 E0= -.36511916E+03  d E =-.343058E-02  mag=     0.4968
 BRION: g(F)=  0.692E-02 g(S)=  0.000E+00
 BRIONS problems: POTIM should be increased
 retain N=  1 mean eig=10.95
 eig:  10.949
 bond charge predicted
       N       E                     dE             d eps       ncg     rms          rms(c)
DAV:   1    -0.354962571314E+03   -0.30792E-02   -0.11585E+00  9400   0.216E+00    0.198E-01
RMM:   2    -0.354964345965E+03   -0.17747E-02   -0.19839E-02  9008   0.273E-01    0.178E-01
RMM:   3    -0.354964650925E+03   -0.30496E-03   -0.99653E-04  8020   0.838E-02    0.263E-01
RMM:   4    -0.354964813375E+03   -0.16245E-03   -0.27171E-04  6279   0.316E-02    0.330E-01
RMM:   5    -0.354964169479E+03    0.64390E-03   -0.10371E-04  5173   0.271E-02    0.123E-01
RMM:   6    -0.354964149125E+03    0.20354E-04   -0.90938E-05  5178   0.228E-02
 A1 parameter for BJ-Damping is not reasonable. Taking default.
  71 F= -.36514424E+03 E0= -.36512441E+03  d E =-.527152E-02  mag=     0.4964
 BRION: g(F)=  0.720E-02 g(S)=  0.000E+00 retain N=  1 mean eig= 0.54
 eig:   0.539
 bond charge predicted
       N       E                     dE             d eps       ncg     rms          rms(c)
DAV:   1    -0.354950640342E+03    0.13529E-01   -0.61529E+00  9384   0.498E+00    0.502E-01
RMM:   2    -0.354960755420E+03   -0.10115E-01   -0.10785E-01  9136   0.645E-01    0.453E-01
RMM:   3    -0.354968113059E+03   -0.73576E-02   -0.63267E-03  8998   0.194E-01    0.109E+00
RMM:   4    -0.354961996866E+03    0.61162E-02   -0.17022E-03  8699   0.796E-02    0.662E-01
RMM:   5    -0.354959767046E+03    0.22298E-02   -0.86951E-04  8153   0.576E-02    0.311E-01
RMM:   6    -0.354959490289E+03    0.27676E-03   -0.52081E-04  7698   0.456E-02    0.240E-01
RMM:   7    -0.354959237418E+03    0.25287E-03   -0.32735E-04  6709   0.371E-02    0.146E-01
RMM:   8    -0.354959192162E+03    0.45256E-04   -0.18059E-04  5612   0.306E-02
 A1 parameter for BJ-Damping is not reasonable. Taking default.
  72 F= -.36513766E+03 E0= -.36511792E+03  d E =0.657598E-02  mag=     0.4958
 BRION: g(F)=  0.690E-02 g(S)=  0.000E+00 retain N=  1 mean eig= 3.16
 eig:   3.165
 bond charge predicted
       N       E                     dE             d eps       ncg     rms          rms(c)
DAV:   1    -0.354963594356E+03   -0.43569E-02   -0.46687E-01  9296   0.138E+00    0.150E-01
RMM:   2    -0.354964337766E+03   -0.74341E-03   -0.76706E-03  8905   0.191E-01    0.123E-01
RMM:   3    -0.354965080324E+03   -0.74256E-03   -0.46671E-04  7117   0.580E-02    0.346E-01
RMM:   4    -0.354964443647E+03    0.63668E-03   -0.12896E-04  5326   0.293E-02    0.174E-01
RMM:   5    -0.354964313760E+03    0.12989E-03   -0.78735E-05  5151   0.243E-02    0.851E-02
RMM:   6    -0.354964300088E+03    0.13672E-04   -0.35099E-05  4957   0.139E-02
 A1 parameter for BJ-Damping is not reasonable. Taking default.
  73 F= -.36514201E+03 E0= -.36512222E+03  d E =-.434780E-02  mag=     0.4957
 BRION: g(F)=  0.693E-02 g(S)=  0.000E+00
 BRIONS problems: POTIM should be increased
 retain N=  1 mean eig= 9.40
 eig:   9.399
 bond charge predicted
       N       E                     dE             d eps       ncg     rms          rms(c)
DAV:   1    -0.354964132852E+03    0.18091E-03   -0.70534E-01  9368   0.169E+00    0.162E-01
RMM:   2    -0.354965638247E+03   -0.15054E-02   -0.12009E-02  8909   0.220E-01    0.279E-01
RMM:   3    -0.354965730551E+03   -0.92304E-04   -0.65944E-04  7408   0.664E-02
 A1 parameter for BJ-Damping is not reasonable. Taking default.
  74 F= -.36514405E+03 E0= -.36512424E+03  d E =-.203977E-02  mag=     0.4958
 BRION: g(F)=  0.716E-02 g(S)=  0.000E+00 retain N=  1 mean eig= 4.08
 eig:   4.084
 bond charge predicted
       N       E                     dE             d eps       ncg     rms          rms(c)
DAV:   1    -0.354965204567E+03    0.43368E-03   -0.33260E+00  9360   0.368E+00    0.379E-01
RMM:   2    -0.354979120437E+03   -0.13916E-01   -0.58084E-02  9267   0.503E-01    0.112E+00
RMM:   3    -0.354972334612E+03    0.67858E-02   -0.37429E-03  9269   0.155E-01    0.596E-01
RMM:   4    -0.354971993768E+03    0.34084E-03   -0.13757E-03  8660   0.716E-02    0.527E-01
RMM:   5    -0.354970201603E+03    0.17922E-02   -0.49184E-04  7255   0.432E-02    0.178E-01
RMM:   6    -0.354970205313E+03   -0.37103E-05   -0.24990E-04  6152   0.336E-02
 A1 parameter for BJ-Damping is not reasonable. Taking default.
  75 F= -.36514683E+03 E0= -.36512714E+03  d E =-.278022E-02  mag=     0.4954
 BRION: g(F)=  0.717E-02 g(S)=  0.000E+00
 BRIONS problems: POTIM should be increased
 retain N=  1 mean eig=22.17
 eig:  22.171
 bond charge predicted
       N       E                     dE             d eps       ncg     rms          rms(c)
DAV:   1    -0.354970879578E+03   -0.67797E-03   -0.19238E+00  9400   0.279E+00    0.285E-01
RMM:   2    -0.354974875741E+03   -0.39962E-02   -0.34602E-02  9121   0.372E-01    0.409E-01
RMM:   3    -0.354974062950E+03    0.81279E-03   -0.22510E-03  8775   0.117E-01    0.278E-01
RMM:   4    -0.354973675006E+03    0.38794E-03   -0.39489E-04  6909   0.402E-02    0.181E-01
RMM:   5    -0.354973758704E+03   -0.83698E-04   -0.16375E-04  5665   0.288E-02
 A1 parameter for BJ-Damping is not reasonable. Taking default.
  76 F= -.36515132E+03 E0= -.36513151E+03  d E =-.449407E-02  mag=     0.4949
 BRION: g(F)=  0.744E-02 g(S)=  0.000E+00 retain N=  1 mean eig= 1.51
 eig:   1.511
 bond charge predicted
       N       E                     dE             d eps       ncg     rms          rms(c)
DAV:   1    -0.354962198396E+03    0.11477E-01   -0.75299E+00  9376   0.552E+00    0.573E-01
RMM:   2    -0.355001685744E+03   -0.39487E-01   -0.13319E-01  9278   0.744E-01    0.196E+00
RMM:   3    -0.354975649148E+03    0.26037E-01   -0.84107E-03  9353   0.228E-01    0.634E-01
RMM:   4    -0.354974605176E+03    0.10440E-02   -0.25112E-03  8892   0.102E-01    0.514E-01
RMM:   5    -0.354973220753E+03    0.13844E-02   -0.80943E-04  8051   0.538E-02    0.255E-01
RMM:   6    -0.354973328207E+03   -0.10745E-03   -0.61763E-04  7780   0.468E-02    0.305E-01
RMM:   7    -0.354972819129E+03    0.50908E-03   -0.57066E-04  7705   0.458E-02    0.114E-01
RMM:   8    -0.354972763167E+03    0.55962E-04   -0.15632E-04  5468   0.292E-02
 A1 parameter for BJ-Damping is not reasonable. Taking default.
  77 F= -.36514820E+03 E0= -.36512847E+03  d E =0.312230E-02  mag=     0.4936
 BRION: g(F)=  0.732E-02 g(S)=  0.000E+00
 BRIONS problems: POTIM should be increased
 retain N=  1 mean eig=11.74
 eig:  11.735
 bond charge predicted
       N       E                     dE             d eps       ncg     rms          rms(c)
DAV:   1    -0.354979182523E+03   -0.63634E-02   -0.22894E-01  9376   0.965E-01    0.116E-01
RMM:   2    -0.354980040605E+03   -0.85808E-03   -0.40533E-03  8858   0.145E-01    0.270E-01
RMM:   3    -0.354979671375E+03    0.36923E-03   -0.23727E-04  5904   0.421E-02    0.145E-01
RMM:   4    -0.354979691165E+03   -0.19791E-04   -0.13028E-04  5424   0.283E-02
 A1 parameter for BJ-Damping is not reasonable. Taking default.
  78 F= -.36515452E+03 E0= -.36513474E+03  d E =-.632133E-02  mag=     0.4933
 BRION: g(F)=  0.727E-02 g(S)=  0.000E+00 retain N=  1 mean eig= 2.38
 eig:   2.382
 bond charge predicted
       N       E                     dE             d eps       ncg     rms          rms(c)
DAV:   1    -0.354987127860E+03   -0.74565E-02   -0.10529E-01  9480   0.682E-01    0.100E-01
RMM:   2    -0.354987889073E+03   -0.76121E-03   -0.22946E-03  8711   0.104E-01    0.289E-01
RMM:   3    -0.354987382293E+03    0.50678E-03   -0.12686E-04  5282   0.322E-02    0.137E-01
RMM:   4    -0.354987317121E+03    0.65172E-04   -0.76196E-05  5075   0.244E-02
 A1 parameter for BJ-Damping is not reasonable. Taking default.
  79 F= -.36516183E+03 E0= -.36514207E+03  d E =-.730555E-02  mag=     0.4925
 BRION: g(F)=  0.752E-02 g(S)=  0.000E+00 retain N=  2 mean eig= 1.53
 eig:   2.734  0.326
 bond charge predicted
       N       E                     dE             d eps       ncg     rms          rms(c)
DAV:   1    -0.354972861969E+03    0.14520E-01   -0.43206E-01  9280   0.135E+00    0.146E-01
RMM:   2    -0.354975375053E+03   -0.25131E-02   -0.91388E-03  9045   0.185E-01    0.485E-01
RMM:   3    -0.354973894037E+03    0.14810E-02   -0.50984E-04  7122   0.597E-02    0.216E-01
RMM:   4    -0.354973726652E+03    0.16738E-03   -0.15587E-04  5538   0.312E-02    0.157E-01
RMM:   5    -0.354973601223E+03    0.12543E-03   -0.68260E-05  5096   0.250E-02    0.626E-02
RMM:   6    -0.354973629378E+03   -0.28155E-04   -0.34408E-05  4729   0.135E-02
 A1 parameter for BJ-Damping is not reasonable. Taking default.
  80 F= -.36514848E+03 E0= -.36512872E+03  d E =0.133512E-01  mag=     0.4924
 BRION: g(F)=  0.722E-02 g(S)=  0.000E+00 retain N=  2 mean eig= 1.97
 eig:   0.329  3.610
 bond charge predicted
       N       E                     dE             d eps       ncg     rms          rms(c)
DAV:   1    -0.354969113929E+03    0.44873E-02   -0.93111E-02  9280   0.616E-01    0.783E-02
RMM:   2    -0.354969444064E+03   -0.33013E-03   -0.17308E-03  8466   0.931E-02    0.162E-01
RMM:   3    -0.354969323825E+03    0.12024E-03   -0.12918E-04  5342   0.306E-02    0.124E-01
RMM:   4    -0.354969336524E+03   -0.12700E-04   -0.49708E-05  5000   0.188E-02
 A1 parameter for BJ-Damping is not reasonable. Taking default.
  81 F= -.36514458E+03 E0= -.36512480E+03  d E =0.389559E-02  mag=     0.4927
 BRION: g(F)=  0.713E-02 g(S)=  0.000E+00 retain N=  2 mean eig= 0.48
 eig:   0.474  0.478
 bond charge predicted
       N       E                     dE             d eps       ncg     rms          rms(c)
DAV:   1    -0.354965269942E+03    0.40539E-02   -0.40955E-02  9536   0.423E-01    0.837E-02
RMM:   2    -0.354967158302E+03   -0.18884E-02   -0.10028E-03  8350   0.708E-02    0.501E-01
RMM:   3    -0.354965383123E+03    0.17752E-02   -0.15334E-04  5365   0.317E-02    0.120E-01
RMM:   4    -0.354965317214E+03    0.65910E-04   -0.60425E-05  5089   0.228E-02
 A1 parameter for BJ-Damping is not reasonable. Taking default.
  82 F= -.36514078E+03 E0= -.36512100E+03  d E =0.380281E-02  mag=     0.4934
 BRION: g(F)=  0.712E-02 g(S)=  0.000E+00 retain N=  3 mean eig= 2.02
 eig:   4.662  1.140  0.270
 bond charge predicted
       N       E                     dE             d eps       ncg     rms          rms(c)
DAV:   1    -0.354962199711E+03    0.31834E-02   -0.22067E-01  9376   0.956E-01    0.119E-01
RMM:   2    -0.354963398757E+03   -0.11990E-02   -0.38267E-03  8854   0.134E-01    0.352E-01
RMM:   3    -0.354962722865E+03    0.67589E-03   -0.25072E-04  6026   0.430E-02    0.208E-01
RMM:   4    -0.354962563205E+03    0.15966E-03   -0.11552E-04  5234   0.280E-02    0.128E-01
RMM:   5    -0.354962512776E+03    0.50429E-04   -0.54992E-05  5034   0.189E-02
 A1 parameter for BJ-Damping is not reasonable. Taking default.
  83 F= -.36513841E+03 E0= -.36511865E+03  d E =0.236701E-02  mag=     0.4943
 BRION: g(F)=  0.710E-02 g(S)=  0.000E+00 retain N=  4 mean eig= 2.84
 eig:   4.772  5.522  0.346  0.707
 bond charge predicted
       N       E                     dE             d eps       ncg     rms          rms(c)
DAV:   1    -0.354951129880E+03    0.11433E-01   -0.32606E+00  9376   0.365E+00    0.368E-01
RMM:   2    -0.354956040432E+03   -0.49106E-02   -0.53290E-02  9116   0.486E-01    0.283E-01
RMM:   3    -0.354958292847E+03   -0.22524E-02   -0.34195E-03  9017   0.144E-01    0.673E-01
RMM:   4    -0.354956532809E+03    0.17600E-02   -0.65667E-04  7885   0.532E-02    0.380E-01
RMM:   5    -0.354955911794E+03    0.62101E-03   -0.31155E-04  6484   0.356E-02    0.259E-01
RMM:   6    -0.354955783648E+03    0.12815E-03   -0.47663E-04  7293   0.430E-02    0.221E-01
RMM:   7    -0.354955526708E+03    0.25694E-03   -0.16382E-04  5436   0.303E-02    0.109E-01
RMM:   8    -0.354955479506E+03    0.47202E-04   -0.73385E-05  5095   0.234E-02
 A1 parameter for BJ-Damping is not reasonable. Taking default.
[...]
RMM:   4    -0.354891768700E+03    0.68476E-02   -0.10988E-03  8540   0.670E-02    0.379E-01
RMM:   5    -0.354891116983E+03    0.65172E-03   -0.48604E-04  7436   0.456E-02    0.237E-01
RMM:   6    -0.354891123624E+03   -0.66408E-05   -0.53801E-04  7580   0.462E-02
 A1 parameter for BJ-Damping is not reasonable. Taking default.
 106 F= -.36508027E+03 E0= -.36506025E+03  d E =0.171437E-01  mag=     0.5239
 BRION: g(F)=  0.648E-02 g(S)=  0.000E+00 retain N=  1 mean eig= 3.57
 eig:   3.568
 bond charge predicted
       N       E                     dE             d eps       ncg     rms          rms(c)
DAV:   1    -0.354906792040E+03   -0.15675E-01   -0.19170E+00  9280   0.281E+00    0.303E-01
RMM:   2    -0.354911334095E+03   -0.45421E-02   -0.33186E-02  9144   0.399E-01    0.498E-01
RMM:   3    -0.354911570576E+03   -0.23648E-03   -0.21453E-03  8893   0.116E-01    0.538E-01
RMM:   4    -0.354910830507E+03    0.74007E-03   -0.72038E-04  8165   0.555E-02    0.449E-01
RMM:   5    -0.354909657815E+03    0.11727E-02   -0.27516E-04  6457   0.376E-02    0.149E-01
RMM:   6    -0.354909672631E+03   -0.14816E-04   -0.21900E-04  5868   0.340E-02
 A1 parameter for BJ-Damping is not reasonable. Taking default.
 107 F= -.36509718E+03 E0= -.36507721E+03  d E =-.169034E-01  mag=     0.5264
 BRION: g(F)=  0.646E-02 g(S)=  0.000E+00 retain N=  1 mean eig= 0.80
 eig:   0.805
 bond charge predicted
       N       E                     dE             d eps       ncg     rms          rms(c)
DAV:   1    -0.354908398231E+03    0.12596E-02   -0.31194E-01  9432   0.112E+00    0.165E-01
RMM:   2    -0.354911439626E+03   -0.30414E-02   -0.70228E-03  9039   0.173E-01    0.576E-01
RMM:   3    -0.354909844726E+03    0.15949E-02   -0.90204E-04  7941   0.626E-02    0.384E-01
RMM:   4    -0.354908824603E+03    0.10201E-02   -0.16749E-04  5706   0.326E-02    0.102E-01
RMM:   5    -0.354908778643E+03    0.45960E-04   -0.69527E-05  5070   0.236E-02
 A1 parameter for BJ-Damping is not reasonable. Taking default.
 108 F= -.36509659E+03 E0= -.36507665E+03  d E =0.582513E-03  mag=     0.5276
 BRION: g(F)=  0.646E-02 g(S)=  0.000E+00 retain N=  2 mean eig= 4.61
 eig:   4.276  4.936
 bond charge predicted
       N       E                     dE             d eps       ncg     rms          rms(c)
DAV:   1    -0.354908184115E+03    0.64049E-03   -0.79452E-02  9648   0.568E-01    0.881E-02
RMM:   2    -0.354908800753E+03   -0.61664E-03   -0.15040E-03  8290   0.813E-02    0.275E-01
RMM:   3    -0.354908280573E+03    0.52018E-03   -0.19173E-04  5779   0.329E-02    0.630E-02
RMM:   4    -0.354908275406E+03    0.51669E-05   -0.41737E-05  5012   0.177E-02
 A1 parameter for BJ-Damping is not reasonable. Taking default.
 109 F= -.36509624E+03 E0= -.36507626E+03  d E =0.354055E-03  mag=     0.5288
 BRION: g(F)=  0.640E-02 g(S)=  0.000E+00 retain N=  1 mean eig= 6.63
 eig:   6.630
 bond charge predicted
       N       E                     dE             d eps       ncg     rms          rms(c)
DAV:   1    -0.354911924523E+03   -0.36440E-02   -0.92946E-01  9408   0.193E+00    0.199E-01
RMM:   2    -0.354919076796E+03   -0.71523E-02   -0.16949E-02  9141   0.261E-01    0.900E-01
RMM:   3    -0.354913457858E+03    0.56189E-02   -0.11789E-03  8447   0.848E-02    0.182E-01
RMM:   4    -0.354913469898E+03   -0.12039E-04   -0.27211E-04  6366   0.368E-02
 A1 parameter for BJ-Damping is not reasonable. Taking default.
 110 F= -.36510146E+03 E0= -.36508153E+03  d E =-.521972E-02  mag=     0.5297
 BRION: g(F)=  0.654E-02 g(S)=  0.000E+00 retain N=  2 mean eig= 4.39
 eig:   4.395  4.395
 bond charge predicted
       N       E                     dE             d eps       ncg     rms          rms(c)
DAV:   1    -0.354902332390E+03    0.11125E-01   -0.21308E+00  9416   0.293E+00    0.261E-01
RMM:   2    -0.354907374994E+03   -0.50426E-02   -0.39663E-02  9090   0.397E-01    0.467E-01
RMM:   3    -0.354906753567E+03    0.62143E-03   -0.25397E-03  8613   0.121E-01    0.348E-01
RMM:   4    -0.354907885974E+03   -0.11324E-02   -0.48361E-04  7378   0.436E-02    0.538E-01
RMM:   5    -0.354905848877E+03    0.20371E-02   -0.20428E-04  5825   0.352E-02    0.937E-02
RMM:   6    -0.354905837923E+03    0.10954E-04   -0.13533E-04  5341   0.274E-02
 A1 parameter for BJ-Damping is not reasonable. Taking default.
 111 F= -.36509380E+03 E0= -.36507384E+03  d E =0.765741E-02  mag=     0.5303
 BRION: g(F)=  0.630E-02 g(S)=  0.000E+00 retain N=  2 mean eig= 3.94
 eig:   6.785  1.104
 bond charge predicted
       N       E                     dE             d eps       ncg     rms          rms(c)
DAV:   1    -0.354906647156E+03   -0.79828E-03   -0.70515E-01  9416   0.170E+00    0.174E-01
RMM:   2    -0.354908121958E+03   -0.14748E-02   -0.11995E-02  8934   0.230E-01    0.265E-01
RMM:   3    -0.354908299722E+03   -0.17776E-03   -0.84793E-04  7658   0.692E-02    0.298E-01
RMM:   4    -0.354908112146E+03    0.18758E-03   -0.18320E-04  5810   0.310E-02    0.273E-01
RMM:   5    -0.354907676677E+03    0.43547E-03   -0.13529E-04  5377   0.313E-02    0.929E-02
RMM:   6    -0.354907676202E+03    0.47451E-06   -0.52334E-05  5024   0.186E-02
 A1 parameter for BJ-Damping is not reasonable. Taking default.
 112 F= -.36509526E+03 E0= -.36507530E+03  d E =-.145321E-02  mag=     0.5301
 BRION: g(F)=  0.626E-02 g(S)=  0.000E+00
 BRIONS problems: POTIM should be increased
 retain N=  1 mean eig= 8.43
 eig:   8.426
 bond charge predicted
       N       E                     dE             d eps       ncg     rms          rms(c)
DAV:   1    -0.354915005929E+03   -0.73293E-02   -0.44430E-01  9464   0.136E+00    0.157E-01
RMM:   2    -0.354916874745E+03   -0.18688E-02   -0.74934E-03  9079   0.191E-01    0.419E-01
RMM:   3    -0.354915909305E+03    0.96544E-03   -0.47815E-04  7238   0.581E-02    0.230E-01
RMM:   4    -0.354915830106E+03    0.79199E-04   -0.18764E-04  5787   0.332E-02
 A1 parameter for BJ-Damping is not reasonable. Taking default.
 113 F= -.36510274E+03 E0= -.36508282E+03  d E =-.748347E-02  mag=     0.5295
 BRION: g(F)=  0.629E-02 g(S)=  0.000E+00 retain N=  2 mean eig= 7.31
 eig:   7.309  7.309
 bond charge predicted
       N       E                     dE             d eps       ncg     rms          rms(c)
DAV:   1    -0.354916925515E+03   -0.10162E-02   -0.40326E-03  9720   0.144E-01    0.111E-01
RMM:   2    -0.354918825952E+03   -0.19004E-02   -0.79590E-04  7911   0.565E-02    0.503E-01
RMM:   3    -0.354917261905E+03    0.15640E-02   -0.34493E-04  6484   0.349E-02    0.248E-01
RMM:   4    -0.354916892409E+03    0.36950E-03   -0.66853E-05  5109   0.221E-02    0.857E-02
RMM:   5    -0.354916864127E+03    0.28281E-04   -0.32522E-05  5047   0.155E-02
 A1 parameter for BJ-Damping is not reasonable. Taking default.
 114 F= -.36510369E+03 E0= -.36508373E+03  d E =-.946451E-03  mag=     0.5283
 BRION: g(F)=  0.635E-02 g(S)=  0.000E+00 retain N=  3 mean eig= 5.12
 eig:   7.506  7.506  0.351
 bond charge predicted
       N       E                     dE             d eps       ncg     rms          rms(c)
DAV:   1    -0.354904676921E+03    0.12215E-01   -0.13963E+00  9360   0.239E+00    0.226E-01
RMM:   2    -0.354908144897E+03   -0.34680E-02   -0.23279E-02  9066   0.329E-01    0.459E-01
RMM:   3    -0.354907349832E+03    0.79507E-03   -0.14032E-03  8433   0.950E-02    0.321E-01
RMM:   4    -0.354907239315E+03    0.11052E-03   -0.42713E-04  7167   0.428E-02    0.306E-01
RMM:   5    -0.354906686605E+03    0.55271E-03   -0.23950E-04  6022   0.337E-02    0.115E-01
RMM:   6    -0.354906744008E+03   -0.57403E-04   -0.12465E-04  5170   0.259E-02
 A1 parameter for BJ-Damping is not reasonable. Taking default.
 115 F= -.36509455E+03 E0= -.36507464E+03  d E =0.913869E-02  mag=     0.5292
 BRION: g(F)=  0.634E-02 g(S)=  0.000E+00 retain N=  2 mean eig= 2.61
 eig:   0.420  4.807
 bond charge predicted
       N       E                     dE             d eps       ncg     rms          rms(c)
DAV:   1    -0.354910160495E+03   -0.34739E-02   -0.42258E-02  9664   0.430E-01    0.707E-02
RMM:   2    -0.354910493429E+03   -0.33293E-03   -0.10699E-03  8204   0.709E-02    0.186E-01
RMM:   3    -0.354910235042E+03    0.25839E-03   -0.11526E-04  5275   0.285E-02    0.701E-02
RMM:   4    -0.354910227204E+03    0.78376E-05   -0.27838E-05  5012   0.158E-02
 A1 parameter for BJ-Damping is not reasonable. Taking default.
 116 F= -.36509783E+03 E0= -.36507786E+03  d E =-.328280E-02  mag=     0.5297
 BRION: g(F)=  0.633E-02 g(S)=  0.000E+00 retain N=  1 mean eig= 4.36
 eig:   4.362
 bond charge predicted
       N       E                     dE             d eps       ncg     rms          rms(c)
DAV:   1    -0.354916566460E+03   -0.63314E-02   -0.79815E-02  9616   0.587E-01    0.738E-02
RMM:   2    -0.354917413024E+03   -0.84656E-03   -0.16640E-03  8405   0.865E-02    0.323E-01
RMM:   3    -0.354916735314E+03    0.67771E-03   -0.10987E-04  5154   0.307E-02    0.986E-02
RMM:   4    -0.354916732717E+03    0.25970E-05   -0.49169E-05  5072   0.180E-02
 A1 parameter for BJ-Damping is not reasonable. Taking default.
 117 F= -.36510397E+03 E0= -.36508401E+03  d E =-.613744E-02  mag=     0.5298
 BRION: g(F)=  0.643E-02 g(S)=  0.000E+00 retain N=  2 mean eig= 3.04
 eig:   5.827  0.245
 bond charge predicted
       N       E                     dE             d eps       ncg     rms          rms(c)
DAV:   1    -0.354909037096E+03    0.76982E-02   -0.10540E-01  9440   0.676E-01    0.740E-02
RMM:   2    -0.354910995367E+03   -0.19583E-02   -0.24225E-03  8659   0.101E-01    0.498E-01
RMM:   3    -0.354909239623E+03    0.17557E-02   -0.19375E-04  5671   0.384E-02    0.672E-02
RMM:   4    -0.354909263527E+03   -0.23903E-04   -0.66012E-05  5160   0.215E-02
 A1 parameter for BJ-Damping is not reasonable. Taking default.
 118 F= -.36509690E+03 E0= -.36507693E+03  d E =0.706519E-02  mag=     0.5302
 BRION: g(F)=  0.633E-02 g(S)=  0.000E+00 retain N=  1 mean eig= 0.09
 eig:   0.089
 bond charge predicted
       N       E                     dE             d eps       ncg     rms          rms(c)
DAV:   1    -0.354911806243E+03   -0.25666E-02   -0.15466E-02  9536   0.259E-01    0.409E-02
RMM:   2    -0.354912009219E+03   -0.20298E-03   -0.36416E-04  6209   0.420E-02    0.158E-01
RMM:   3    -0.354911882250E+03    0.12697E-03   -0.49606E-05  4975   0.213E-02    0.856E-02
RMM:   4    -0.354911842857E+03    0.39393E-04   -0.14443E-05  4832   0.107E-02
 A1 parameter for BJ-Damping is not reasonable. Taking default.
 119 F= -.36509929E+03 E0= -.36507933E+03  d E =-.238804E-02  mag=     0.5306
 BRION: g(F)=  0.631E-02 g(S)=  0.000E+00 retain N=  2 mean eig= 1.18
 eig:   0.562  1.798
 bond charge predicted
       N       E                     dE             d eps       ncg     rms          rms(c)
DAV:   1    -0.354907544432E+03    0.43378E-02   -0.56786E-02  9296   0.489E-01    0.705E-02
RMM:   2    -0.354907973642E+03   -0.42921E-03   -0.12073E-03  7960   0.718E-02    0.229E-01
RMM:   3    -0.354907666846E+03    0.30680E-03   -0.79408E-05  5150   0.249E-02    0.927E-02
RMM:   4    -0.354907654511E+03    0.12335E-04   -0.26193E-05  4918   0.132E-02
 A1 parameter for BJ-Damping is not reasonable. Taking default.
 120 F= -.36509524E+03 E0= -.36507527E+03  d E =0.405397E-02  mag=     0.5316
 BRION: g(F)=  0.631E-02 g(S)=  0.000E+00 retain N=  2 mean eig= 1.00
 eig:   0.996  0.996
 bond charge predicted
       N       E                     dE             d eps       ncg     rms          rms(c)
DAV:   1    -0.354916130270E+03   -0.84634E-02   -0.15078E-01  9424   0.808E-01    0.112E-01
RMM:   2    -0.354918645342E+03   -0.25151E-02   -0.37069E-03  8880   0.123E-01    0.557E-01
RMM:   3    -0.354916693961E+03    0.19514E-02   -0.45124E-04  6967   0.477E-02    0.213E-01
RMM:   4    -0.354916387742E+03    0.30622E-03   -0.74219E-05  5131   0.236E-02    0.907E-02
RMM:   5    -0.354916372944E+03    0.14797E-04   -0.29875E-05  5004   0.157E-02
 A1 parameter for BJ-Damping is not reasonable. Taking default.
 121 F= -.36510353E+03 E0= -.36508359E+03  d E =-.829457E-02  mag=     0.5318
 BRION: g(F)=  0.639E-02 g(S)=  0.000E+00 retain N=  3 mean eig= 1.06
 eig:   0.729  0.729  1.721
 bond charge predicted
       N       E                     dE             d eps       ncg     rms          rms(c)
DAV:   1    -0.354908468700E+03    0.79190E-02   -0.28709E-01  9280   0.111E+00    0.117E-01
RMM:   2    -0.354909756379E+03   -0.12877E-02   -0.56411E-03  8930   0.162E-01    0.354E-01
RMM:   3    -0.354909076411E+03    0.67997E-03   -0.30024E-04  6253   0.487E-02    0.164E-01
RMM:   4    -0.354909015824E+03    0.60587E-04   -0.13204E-04  5450   0.270E-02
 A1 parameter for BJ-Damping is not reasonable. Taking default.
 122 F= -.36509682E+03 E0= -.36507685E+03  d E =0.671137E-02  mag=     0.5315
 BRION: g(F)=  0.645E-02 g(S)=  0.000E+00 retain N=  2 mean eig= 1.51
 eig:   0.611  2.409
 bond charge predicted
       N       E                     dE             d eps       ncg     rms          rms(c)
DAV:   1    -0.354918286930E+03   -0.92105E-02   -0.22511E+00  9296   0.309E+00    0.340E-01
RMM:   2    -0.354930759918E+03   -0.12473E-01   -0.43899E-02  9162   0.447E-01    0.118E+00
RMM:   3    -0.354922510326E+03    0.82496E-02   -0.35275E-03  8862   0.139E-01    0.420E-01
RMM:   4    -0.354923248864E+03   -0.73854E-03   -0.62986E-04  7878   0.515E-02    0.522E-01
RMM:   5    -0.354921869842E+03    0.13790E-02   -0.39403E-04  7307   0.431E-02    0.304E-01
RMM:   6    -0.354921676922E+03    0.19292E-03   -0.23752E-04  6116   0.351E-02    0.257E-01
RMM:   7    -0.354921398980E+03    0.27794E-03   -0.32201E-04  6629   0.372E-02    0.111E-01
RMM:   8    -0.354921318348E+03    0.80632E-04   -0.10198E-04  5132   0.256E-02
 A1 parameter for BJ-Damping is not reasonable. Taking default.
 123 F= -.36510761E+03 E0= -.36508769E+03  d E =-.107923E-01  mag=     0.5347
 BRION: g(F)=  0.634E-02 g(S)=  0.000E+00 retain N=  3 mean eig= 5.09
 eig:   0.949  7.153  7.153
 bond charge predicted
       N       E                     dE             d eps       ncg     rms          rms(c)
DAV:   1    -0.354917351017E+03    0.40480E-02   -0.42853E-02  9744   0.433E-01    0.458E-02
RMM:   2    -0.354917444962E+03   -0.93945E-04   -0.84772E-04  7293   0.618E-02    0.733E-02
RMM:   3    -0.354917479409E+03   -0.34446E-04   -0.58222E-05  4981   0.230E-02
 A1 parameter for BJ-Damping is not reasonable. Taking default.
 124 F= -.36510403E+03 E0= -.36508409E+03  d E =0.358425E-02  mag=     0.5357
 BRION: g(F)=  0.649E-02 g(S)=  0.000E+00 retain N=  2 mean eig= 3.86
 eig:   6.850  0.871
 bond charge predicted
       N       E                     dE             d eps       ncg     rms          rms(c)
DAV:   1    -0.354940610366E+03   -0.23165E-01   -0.21494E+00  9280   0.306E+00    0.276E-01
RMM:   2    -0.354945576195E+03   -0.49658E-02   -0.43424E-02  9119   0.434E-01    0.390E-01
RMM:   3    -0.354947047465E+03   -0.14713E-02   -0.24442E-03  8744   0.128E-01    0.589E-01
RMM:   4    -0.354945402320E+03    0.16451E-02   -0.57550E-04  7746   0.505E-02    0.377E-01
RMM:   5    -0.354944601381E+03    0.80094E-03   -0.26273E-04  6202   0.363E-02    0.130E-01
RMM:   6    -0.354944593922E+03    0.74591E-05   -0.12685E-04  5274   0.279E-02
 A1 parameter for BJ-Damping is not reasonable. Taking default.
 125 F= -.36512930E+03 E0= -.36510944E+03  d E =-.252721E-01  mag=     0.5353
 BRION: g(F)=  0.676E-02 g(S)=  0.000E+00 retain N=  3 mean eig= 3.17
 eig:   6.901  1.304  1.304
 bond charge predicted
       N       E                     dE             d eps       ncg     rms          rms(c)
DAV:   1    -0.354926411328E+03    0.18190E-01   -0.10059E+00  9280   0.209E+00    0.219E-01
RMM:   2    -0.354932160669E+03   -0.57493E-02   -0.22181E-02  9148   0.313E-01    0.764E-01
RMM:   3    -0.354929469757E+03    0.26909E-02   -0.14205E-03  8691   0.958E-02    0.433E-01
RMM:   4    -0.354928368638E+03    0.11011E-02   -0.49660E-04  7219   0.456E-02    0.175E-01
RMM:   5    -0.354928165263E+03    0.20337E-03   -0.15251E-04  5522   0.290E-02    0.980E-02
RMM:   6    -0.354928135597E+03    0.29666E-04   -0.52667E-05  4974   0.197E-02
 A1 parameter for BJ-Damping is not reasonable. Taking default.
 126 F= -.36511409E+03 E0= -.36509419E+03  d E =0.152088E-01  mag=     0.5351
 BRION: g(F)=  0.630E-02 g(S)=  0.000E+00 retain N=  3 mean eig= 2.75
 eig:   6.506  1.485  0.259
 bond charge predicted
       N       E                     dE             d eps       ncg     rms          rms(c)
DAV:   1    -0.354918586271E+03    0.95790E-02   -0.16695E+00  9360   0.266E+00    0.297E-01
RMM:   2    -0.354923060498E+03   -0.44742E-02   -0.30759E-02  9198   0.381E-01    0.522E-01
RMM:   3    -0.354922835671E+03    0.22483E-03   -0.19174E-03  9073   0.111E-01    0.536E-01
RMM:   4    -0.354922108361E+03    0.72731E-03   -0.51377E-04  7509   0.469E-02    0.392E-01
RMM:   5    -0.354921275303E+03    0.83306E-03   -0.20045E-04  5791   0.330E-02    0.165E-01
RMM:   6    -0.354921786304E+03   -0.51100E-03   -0.50348E-04  7095   0.404E-02    0.332E-01
RMM:   7    -0.354921198659E+03    0.58764E-03   -0.35397E-04  6612   0.355E-02    0.113E-01
RMM:   8    -0.354921110829E+03    0.87831E-04   -0.68275E-05  5102   0.210E-02
 A1 parameter for BJ-Damping is not reasonable. Taking default.
 127 F= -.36510823E+03 E0= -.36508829E+03  d E =0.586025E-02  mag=     0.5314
 BRION: g(F)=  0.647E-02 g(S)=  0.000E+00 retain N=  2 mean eig= 4.24
 eig:   0.792  7.684
 bond charge predicted
       N       E                     dE             d eps       ncg     rms          rms(c)
DAV:   1    -0.354907851753E+03    0.13347E-01   -0.35341E-01  9648   0.125E+00    0.128E-01
RMM:   2    -0.354908762876E+03   -0.91112E-03   -0.73737E-03  8908   0.182E-01    0.204E-01
RMM:   3    -0.354908830609E+03   -0.67733E-04   -0.38511E-04  6627   0.540E-02
 A1 parameter for BJ-Damping is not reasonable. Taking default.
 128 F= -.36509669E+03 E0= -.36507678E+03  d E =0.115396E-01  mag=     0.5309
 BRION: g(F)=  0.637E-02 g(S)=  0.000E+00 retain N=  1 mean eig= 1.88
 eig:   1.882
 bond charge predicted
       N       E                     dE             d eps       ncg     rms          rms(c)
DAV:   1    -0.354917453869E+03   -0.86910E-02   -0.17418E-01  9520   0.873E-01    0.157E-01
RMM:   2    -0.354927963401E+03   -0.10510E-01   -0.49734E-03  9197   0.148E-01    0.121E+00
RMM:   3    -0.354918030357E+03    0.99330E-02   -0.85221E-04  8499   0.656E-02    0.231E-01
RMM:   4    -0.354917733379E+03    0.29698E-03   -0.21547E-04  5976   0.352E-02    0.994E-02
RMM:   5    -0.354917689236E+03    0.44143E-04   -0.47943E-05  5066   0.199E-02
 A1 parameter for BJ-Damping is not reasonable. Taking default.
 129 F= -.36510499E+03 E0= -.36508506E+03  d E =-.830090E-02  mag=     0.5304
 BRION: g(F)=  0.636E-02 g(S)=  0.000E+00 retain N=  2 mean eig= 4.94
 eig:   1.878  7.998
 bond charge predicted
       N       E                     dE             d eps       ncg     rms          rms(c)
DAV:   1    -0.354919034777E+03   -0.13014E-02   -0.11978E-02  9704   0.235E-01    0.492E-02
RMM:   2    -0.354919270109E+03   -0.23533E-03   -0.34541E-04  6442   0.445E-02    0.193E-01
RMM:   3    -0.354919084271E+03    0.18584E-03   -0.44671E-05  5051   0.212E-02    0.931E-02
RMM:   4    -0.354919058506E+03    0.25765E-04   -0.87200E-06  4689   0.886E-03
 A1 parameter for BJ-Damping is not reasonable. Taking default.
 130 F= -.36510629E+03 E0= -.36508633E+03  d E =-.129551E-02  mag=     0.5302
 BRION: g(F)=  0.634E-02 g(S)=  0.000E+00 retain N=  2 mean eig= 1.92
 eig:   1.660  2.173
 bond charge predicted
       N       E                     dE             d eps       ncg     rms          rms(c)
DAV:   1    -0.354921073001E+03   -0.19887E-02   -0.82309E-03  9320   0.189E-01    0.694E-02
RMM:   2    -0.354921192620E+03   -0.11962E-03   -0.21514E-04  5461   0.332E-02    0.124E-01
RMM:   3    -0.354921162660E+03    0.29960E-04   -0.61245E-05  4998   0.241E-02
