<?xml version="1.0" encoding="ISO-8859-1"?>
<modeling>
 <generator>
  <i name="program" type="string">vasp </i>
  <i name="version" type="string">5.4.1  </i>
  <i name="subversion" type="string">08Jul2015 (build Apr 24 2014 00:09:29) complex standard with constrain (TS)     parallel </i>
  <i name="platform" type="string">IBM of Center for Computational Chemistry </i>
  <i name="date" type="string">2018 03 18 </i>
  <i name="time" type="string">22:57:22 </i>
 </generator>
 <incar>
  <i type="int" name="ISTART">     0</i>
  <i type="string" name="PREC">accurate       ! [low/medium/high/norma</i>
  <i type="string" name="ALGO">Fast</i>
  <i type="int" name="ISPIN">     2</i>
  <i type="int" name="NELM">   300</i>
  <i type="int" name="NELMIN">     3</i>
  <i type="int" name="IBRION">     1</i>
  <i name="EDIFFG">     -0.05000000</i>
  <i type="int" name="NSW">  1000</i>
  <i type="int" name="ISIF">     2</i>
  <i type="int" name="ISYM">     0</i>
  <i name="ENCUT">    500.00000000</i>
  <i name="POTIM">      0.10000000</i>
  <i type="string" name="LREAL"> A    ! aproximace, T zpomaluje, ale pre</i>
  <i type="int" name="ISMEAR">     0</i>
  <i name="SIGMA">      0.05000000</i>
  <i type="int" name="NWRITE">     2</i>
  <i type="logical" name="LWAVE"> F  </i>
  <i type="logical" name="LCHARG"> F  </i>
  <v type="int" name="KPOINT_BSE">    -1     0     0     0</v>
  <i type="int" name="NELM">   300</i>
 </incar>
 <kpoints>
  <generation param="Gamma">
   <v type="int" name="divisions">       4        4        1 </v>
   <v name="usershift">      0.00000000       0.00000000       0.00000000 </v>
   <v name="genvec1">      0.25000000       0.00000000       0.00000000 </v>
   <v name="genvec2">      0.00000000       0.25000000       0.00000000 </v>
   <v name="genvec3">      0.00000000       0.00000000       1.00000000 </v>
   <v name="shift">      0.00000000       0.00000000       0.00000000 </v>
  </generation>
  <varray name="kpointlist" >
   <v>       0.00000000       0.00000000       0.00000000 </v>
   <v>       0.25000000       0.00000000       0.00000000 </v>
   <v>       0.50000000       0.00000000       0.00000000 </v>
   <v>       0.00000000       0.25000000       0.00000000 </v>
   <v>       0.25000000       0.25000000       0.00000000 </v>
   <v>       0.50000000       0.25000000       0.00000000 </v>
   <v>      -0.25000000       0.25000000       0.00000000 </v>
   <v>       0.00000000       0.50000000       0.00000000 </v>
   <v>       0.25000000       0.50000000       0.00000000 </v>
   <v>       0.50000000       0.50000000       0.00000000 </v>
  </varray>
  <varray name="weights" >
   <v>       0.06250000 </v>
   <v>       0.12500000 </v>
   <v>       0.06250000 </v>
   <v>       0.12500000 </v>
   <v>       0.12500000 </v>
   <v>       0.12500000 </v>
   <v>       0.12500000 </v>
   <v>       0.06250000 </v>
   <v>       0.12500000 </v>
   <v>       0.06250000 </v>
  </varray>
 </kpoints>
 <parameters>
  <separator name="general" >
   <i type="string" name="SYSTEM"></i>
   <i type="logical" name="LCOMPAT"> F  </i>
  </separator>
  <separator name="electronic" >
   <i type="string" name="PREC">accura</i>
   <i name="ENMAX">    500.00000000</i>
   <i name="ENAUG">    644.87300000</i>
   <i name="EDIFF">      0.00010000</i>
   <i type="int" name="IALGO">    68</i>
   <i type="int" name="IWAVPR">    11</i>
   <i type="int" name="NBANDS">   232</i>
   <i name="NELECT">    343.00000000</i>
   <i type="int" name="TURBO">     0</i>
   <i type="int" name="IRESTART">     0</i>
   <i type="int" name="NREBOOT">     0</i>
   <i type="int" name="NMIN">     0</i>
   <i name="EREF">      0.00000000</i>
   <separator name="electronic smearing" >
    <i type="int" name="ISMEAR">     0</i>
    <i name="SIGMA">      0.05000000</i>
    <i name="KSPACING">      0.50000000</i>
    <i type="logical" name="KGAMMA"> T  </i>
   </separator>
   <separator name="electronic projectors" >
    <i type="logical" name="LREAL"> T  </i>
    <v name="ROPT">     -0.00025000     -0.00025000     -0.00025000     -0.00025000     -0.00025000</v>
    <i type="int" name="LMAXPAW">  -100</i>
    <i type="int" name="LMAXMIX">     2</i>
    <i type="logical" name="NLSPLINE"> F  </i>
   </separator>
   <separator name="electronic startup" >
    <i type="int" name="ISTART">     0</i>
    <i type="int" name="ICHARG">     2</i>
    <i type="int" name="INIWAV">     1</i>
   </separator>
   <separator name="electronic spin" >
    <i type="int" name="ISPIN">     2</i>
    <i type="logical" name="LNONCOLLINEAR"> F  </i>
    <v name="MAGMOM">      1.00000000      1.00000000      1.00000000      1.00000000      1.00000000      1.00000000      1.00000000      1.00000000      1.00000000      1.00000000      1.00000000      1.00000000      1.00000000      1.00000000      1.00000000      1.00000000      1.00000000      1.00000000      1.00000000      1.00000000
      1.00000000      1.00000000      1.00000000      1.00000000      1.00000000      1.00000000      1.00000000      1.00000000      1.00000000      1.00000000      1.00000000      1.00000000      1.00000000      1.00000000      1.00000000      1.00000000      1.00000000      1.00000000      1.00000000      1.00000000
      1.00000000      1.00000000      1.00000000      1.00000000      1.00000000      1.00000000      1.00000000      1.00000000      1.00000000      1.00000000      1.00000000      1.00000000      1.00000000</v>
    <i name="NUPDOWN">     -1.00000000</i>
    <i type="logical" name="LSORBIT"> F  </i>
    <v name="SAXIS">      0.00000000      0.00000000      1.00000000</v>
    <i type="logical" name="LSPIRAL"> F  </i>
    <v name="QSPIRAL">      0.00000000      0.00000000      0.00000000</v>
    <i type="logical" name="LZEROZ"> F  </i>
   </separator>
   <separator name="electronic exchange-correlation" >
    <i type="logical" name="LASPH"> F  </i>
    <i type="logical" name="LMETAGGA"> F  </i>
   </separator>
   <separator name="electronic convergence" >
    <i type="int" name="NELM">   300</i>
    <i type="int" name="NELMDL">    -5</i>
    <i type="int" name="NELMIN">     3</i>
    <i name="ENINI">    500.00000000</i>
    <separator name="electronic convergence detail" >
     <i type="logical" name="LDIAG"> T  </i>
     <i type="logical" name="LSUBROT"> F  </i>
     <i name="WEIMIN">      0.00100000</i>
     <i name="EBREAK">      0.00000011</i>
     <i name="DEPER">      0.30000000</i>
     <i type="int" name="NRMM">     4</i>
     <i name="TIME">      0.40000000</i>
    </separator>
   </separator>
   <separator name="electronic mixer" >
    <i name="AMIX">      0.40000000</i>
    <i name="BMIX">      1.00000000</i>
    <i name="AMIN">      0.10000000</i>
    <i name="AMIX_MAG">      1.60000000</i>
    <i name="BMIX_MAG">      1.00000000</i>
    <separator name="electronic mixer details" >
     <i type="int" name="IMIX">     4</i>
     <i type="logical" name="MIXFIRST"> F  </i>
     <i type="int" name="MAXMIX">   -45</i>
     <i name="WC">    100.00000000</i>
     <i type="int" name="INIMIX">     1</i>
     <i type="int" name="MIXPRE">     1</i>
     <i type="int" name="MREMOVE">     5</i>
    </separator>
   </separator>
   <separator name="electronic dipolcorrection" >
    <i type="logical" name="LDIPOL"> F  </i>
    <i type="logical" name="LMONO"> F  </i>
    <i type="int" name="IDIPOL">     0</i>
    <i name="EPSILON">      1.00000000</i>
    <v name="DIPOL">   -100.00000000   -100.00000000   -100.00000000</v>
    <i name="EFIELD">      0.00000000</i>
   </separator>
  </separator>
  <separator name="grids" >
   <i type="int" name="NGX">    48</i>
   <i type="int" name="NGY">    48</i>
   <i type="int" name="NGZ">   162</i>
   <i type="int" name="NGXF">    96</i>
   <i type="int" name="NGYF">    96</i>
   <i type="int" name="NGZF">   324</i>
   <i type="logical" name="ADDGRID"> F  </i>
  </separator>
  <separator name="ionic" >
   <i type="int" name="NSW">  1000</i>
   <i type="int" name="IBRION">     1</i>
   <i type="int" name="ISIF">     2</i>
   <i name="PSTRESS">      0.00000000</i>
   <i name="EDIFFG">     -0.05000000</i>
   <i type="int" name="NFREE">     0</i>
   <i name="POTIM">      0.10000000</i>
   <i name="SMASS">     -3.00000000</i>
   <i name="SCALEE">      1.00000000</i>
  </separator>
  <separator name="ionic md" >
   <i name="TEBEG">      0.00010000</i>
   <i name="TEEND">      0.00010000</i>
   <i type="int" name="NBLOCK">     1</i>
   <i type="int" name="KBLOCK">  1000</i>
   <i type="int" name="NPACO">   256</i>
   <i name="APACO">     16.00000000</i>
  </separator>
  <separator name="symmetry" >
   <i type="int" name="ISYM">     0</i>
   <i name="SYMPREC">      0.00001000</i>
  </separator>
  <separator name="dos" >
   <i type="logical" name="LORBIT"> F  </i>
   <v name="RWIGS">     -1.00000000     -1.00000000     -1.00000000     -1.00000000     -1.00000000</v>
   <i type="int" name="NEDOS">   301</i>
   <i name="EMIN">     10.00000000</i>
   <i name="EMAX">    -10.00000000</i>
   <i name="EFERMI">      0.00000000</i>
  </separator>
  <separator name="writing" >
   <i type="int" name="NWRITE">     2</i>
   <i type="logical" name="LWAVE"> F  </i>
   <i type="logical" name="LCHARG"> F  </i>
   <i type="logical" name="LPARD"> F  </i>
   <i type="logical" name="LVTOT"> F  </i>
   <i type="logical" name="LVHAR"> F  </i>
   <i type="logical" name="LELF"> F  </i>
   <i type="logical" name="LOPTICS"> F  </i>
   <v name="STM">      0.00000000      0.00000000      0.00000000      0.00000000      0.00000000      0.00000000      0.00000000</v>
  </separator>
  <separator name="performance" >
   <i type="int" name="NPAR">     4</i>
   <i type="int" name="NSIM">     4</i>
   <i type="int" name="NBLK">    -1</i>
   <i type="logical" name="LPLANE"> T  </i>
   <i type="logical" name="LSCALAPACK"> T  </i>
   <i type="logical" name="LSCAAWARE"> F  </i>
   <i type="logical" name="LSCALU"> F  </i>
   <i type="logical" name="LASYNC"> F  </i>
   <i type="logical" name="LORBITALREAL"> F  </i>
  </separator>
  <separator name="miscellaneous" >
   <i type="int" name="IDIOT">     3</i>
   <i type="logical" name="LMUSIC"> F  </i>
   <v name="POMASS">      1.00000000     12.01100000     16.00000000    101.07000000    192.22000000</v>
   <v name="DARWINR">      0.00000000      0.00000000      0.00000000      0.00000000      0.00000000</v>
   <v name="DARWINV">      1.00000000      1.00000000      1.00000000      1.00000000      1.00000000</v>
   <i type="logical" name="LCORR"> T  </i>
  </separator>
  <i type="logical" name="GGA_COMPAT"> T  </i>
  <i type="logical" name="LBERRY"> F  </i>
  <i type="int" name="ICORELEVEL">     0</i>
  <i type="logical" name="LDAU"> F  </i>
  <i type="int" name="I_CONSTRAINED_M">     0</i>
  <separator name="electronic exchange-correlation" >
   <i type="string" name="GGA">--</i>
   <i type="int" name="VOSKOWN">     0</i>
   <i type="logical" name="LHFCALC"> F  </i>
   <i type="string" name="PRECFOCK"></i>
   <i type="logical" name="LSYMGRAD"> F  </i>
   <i type="logical" name="LHFONE"> F  </i>
   <i type="logical" name="LRHFCALC"> F  </i>
   <i type="logical" name="LTHOMAS"> F  </i>
   <i type="logical" name="LMODELHF"> F  </i>
   <i name="ENCUT4O">     -1.00000000</i>
   <i type="int" name="EXXOEP">     0</i>
   <i type="int" name="FOURORBIT">     0</i>
   <i name="AEXX">      0.00000000</i>
   <i name="HFALPHA">      0.00000000</i>
   <i name="MCALPHA">      0.00000000</i>
   <i name="ALDAX">      1.00000000</i>
   <i name="AGGAX">      1.00000000</i>
   <i name="ALDAC">      1.00000000</i>
   <i name="AGGAC">      1.00000000</i>
   <i type="int" name="NKREDX">     1</i>
   <i type="int" name="NKREDY">     1</i>
   <i type="int" name="NKREDZ">     1</i>
   <i type="logical" name="SHIFTRED"> F  </i>
   <i type="logical" name="ODDONLY"> F  </i>
   <i type="logical" name="EVENONLY"> F  </i>
   <i type="int" name="LMAXFOCK">     0</i>
   <i type="int" name="NMAXFOCKAE">     0</i>
   <i type="logical" name="LFOCKAEDFT"> F  </i>
   <i name="HFSCREEN">      0.00000000</i>
   <i name="HFSCREENC">      0.00000000</i>
   <i type="int" name="NBANDSGWLOW">     0</i>
  </separator>
  <separator name="vdW DFT" >
   <i type="logical" name="LUSE_VDW"> F  </i>
   <i name="Zab_VDW">     -0.84910000</i>
   <i name="PARAM1">      0.12340000</i>
   <i name="PARAM2">      1.00000000</i>
   <i name="PARAM3">      0.00000000</i>
  </separator>
  <separator name="model GW" >
   <i type="int" name="MODEL_GW">     0</i>
   <i name="MODEL_EPS0">     10.12638257</i>
   <i name="MODEL_ALPHA">      1.00000000</i>
  </separator>
  <separator name="linear response parameters" >
   <i type="logical" name="LEPSILON"> F  </i>
   <i type="logical" name="LRPA"> F  </i>
   <i type="logical" name="LNABLA"> F  </i>
   <i type="logical" name="LVEL"> F  </i>
   <i type="int" name="KINTER">     0</i>
   <i name="CSHIFT">      0.10000000</i>
   <i name="OMEGAMAX">     -1.00000000</i>
   <i name="DEG_THRESHOLD">      0.00200000</i>
  </separator>
  <separator name="orbital magnetization" >
   <i type="logical" name="NUCIND"> F  </i>
   <v name="MAGPOS">      0.00000000      0.00000000      0.00000000</v>
   <i type="logical" name="LNICSALL"> T  </i>
   <i type="logical" name="ORBITALMAG"> F  </i>
   <i type="logical" name="LMAGBLOCH"> F  </i>
   <i type="logical" name="LCHIMAG"> F  </i>
   <i type="logical" name="LGAUGE"> T  </i>
   <i type="int" name="MAGATOM">     0</i>
   <v name="MAGDIPOL">      0.00000000      0.00000000      0.00000000</v>
   <v name="AVECCONST">      0.00000000      0.00000000      0.00000000</v>
  </separator>
  <separator name="response functions" >
   <i type="logical" name="LADDER"> F  </i>
   <i type="logical" name="LFXC"> F  </i>
   <i type="logical" name="LHARTREE"> T  </i>
   <i type="int" name="IBSE">     0</i>
   <v type="int" name="KPOINT">    -1     0     0     0</v>
   <i type="logical" name="LTCTE"> F  </i>
   <i type="logical" name="LTETE"> F  </i>
   <i type="logical" name="LTRIPLET"> F  </i>
   <i type="logical" name="LFXCEPS"> F  </i>
   <i type="logical" name="LFXHEG"> F  </i>
   <i type="int" name="NATURALO">     0</i>
   <i type="logical" name="L2ORDER"> F  </i>
   <i type="logical" name="LUSEW"> F  </i>
   <i name="ENCUTGW">     -2.00000000</i>
   <i name="ENCUTGWSOFT">     -2.00000000</i>
   <i name="ENCUTLF">     -1.00000000</i>
   <i type="int" name="LMAXMP2">    -1</i>
   <i name="SCISSOR">      0.00000000</i>
   <i type="int" name="NOMEGA">     0</i>
   <i type="int" name="NOMEGAR">     0</i>
   <i type="int" name="NBANDSGW">    -1</i>
   <i type="int" name="NBANDSO">    -1</i>
   <i type="int" name="NBANDSV">    -1</i>
   <i type="int" name="NELM">   300</i>
   <i type="int" name="NELMHF">     1</i>
   <i type="int" name="DIM">     3</i>
   <i type="int" name="ANTIRES">     0</i>
   <i name="OMEGAMAX">    -30.00000000</i>
   <i name="OMEGAMIN">    -30.00000000</i>
   <i name="OMEGATL">   -200.00000000</i>
   <i type="int" name="OMEGAGRID">     0</i>
   <i name="CSHIFT">     -0.10000000</i>
   <i type="logical" name="SELFENERGY"> F  </i>
   <i type="logical" name="LSPECTRAL"> F  </i>
   <i type="logical" name="LSPECTRALGW"> F  </i>
   <i type="logical" name="LSINGLES"> F  </i>
   <i type="logical" name="LFERMIGW"> F  </i>
   <i type="logical" name="ODDONLYGW"> F  </i>
   <i type="logical" name="EVENONLYGW"> F  </i>
   <i type="int" name="NKREDLFX">     1</i>
   <i type="int" name="NKREDLFY">     1</i>
   <i type="int" name="NKREDLFZ">     1</i>
   <i type="int" name="MAXMEM">  1800</i>
   <i type="int" name="TELESCOPE">     0</i>
   <i type="int" name="TAUPAR">     1</i>
   <i type="int" name="OMEGAPAR">    -1</i>
   <i name="LAMBDA">      1.00000000</i>
  </separator>
  <separator name="External order field" >
   <i name="OFIELD_KAPPA">      0.00000000</i>
   <v name="OFIELD_K">      0.00000000      0.00000000      0.00000000</v>
   <i name="OFIELD_Q6_NEAR">      0.00000000</i>
   <i name="OFIELD_Q6_FAR">      0.00000000</i>
   <i name="OFIELD_A">      0.00000000</i>
  </separator>
 </parameters>
 <atominfo>
  <atoms>      53 </atoms>
  <types>       5 </types>
  <array name="atoms" >
   <dimension dim="1">ion</dimension>
   <field type="string">element</field>
   <field type="int">atomtype</field>
   <set>
    <rc><c>H </c><c>   1</c></rc>
    <rc><c>H </c><c>   1</c></rc>
    <rc><c>H </c><c>   1</c></rc>
    <rc><c>H </c><c>   1</c></rc>
    <rc><c>C </c><c>   2</c></rc>
    <rc><c>O </c><c>   3</c></rc>
    <rc><c>O </c><c>   3</c></rc>
    <rc><c>O </c><c>   3</c></rc>
    <rc><c>O </c><c>   3</c></rc>
    <rc><c>O </c><c>   3</c></rc>
    <rc><c>O </c><c>   3</c></rc>
    <rc><c>O </c><c>   3</c></rc>
    <rc><c>O </c><c>   3</c></rc>
    <rc><c>O </c><c>   3</c></rc>
    <rc><c>O </c><c>   3</c></rc>
    <rc><c>O </c><c>   3</c></rc>
    <rc><c>O </c><c>   3</c></rc>
    <rc><c>O </c><c>   3</c></rc>
    <rc><c>O </c><c>   3</c></rc>
    <rc><c>O </c><c>   3</c></rc>
    <rc><c>O </c><c>   3</c></rc>
    <rc><c>O </c><c>   3</c></rc>
    <rc><c>O </c><c>   3</c></rc>
    <rc><c>O </c><c>   3</c></rc>
    <rc><c>O </c><c>   3</c></rc>
    <rc><c>O </c><c>   3</c></rc>
    <rc><c>O </c><c>   3</c></rc>
    <rc><c>O </c><c>   3</c></rc>
    <rc><c>O </c><c>   3</c></rc>
    <rc><c>O </c><c>   3</c></rc>
    <rc><c>O </c><c>   3</c></rc>
    <rc><c>O </c><c>   3</c></rc>
    <rc><c>O </c><c>   3</c></rc>
    <rc><c>O </c><c>   3</c></rc>
    <rc><c>O </c><c>   3</c></rc>
    <rc><c>O </c><c>   3</c></rc>
    <rc><c>O </c><c>   3</c></rc>
    <rc><c>Ru</c><c>   4</c></rc>
    <rc><c>Ir</c><c>   5</c></rc>
    <rc><c>Ir</c><c>   5</c></rc>
    <rc><c>Ir</c><c>   5</c></rc>
    <rc><c>Ir</c><c>   5</c></rc>
    <rc><c>Ir</c><c>   5</c></rc>
    <rc><c>Ir</c><c>   5</c></rc>
    <rc><c>Ir</c><c>   5</c></rc>
    <rc><c>Ir</c><c>   5</c></rc>
    <rc><c>Ir</c><c>   5</c></rc>
    <rc><c>Ir</c><c>   5</c></rc>
    <rc><c>Ir</c><c>   5</c></rc>
    <rc><c>Ir</c><c>   5</c></rc>
    <rc><c>Ir</c><c>   5</c></rc>
    <rc><c>Ir</c><c>   5</c></rc>
    <rc><c>Ir</c><c>   5</c></rc>
   </set>
  </array>
  <array name="atomtypes" >
   <dimension dim="1">type</dimension>
   <field type="int">atomspertype</field>
   <field type="string">element</field>
   <field>mass</field>
   <field>valence</field>
   <field type="string">pseudopotential</field>
   <set>
    <rc><c>   4</c><c>H </c><c>      1.00000000</c><c>      1.00000000</c><c>  PAW_PBE H 15Jun2001                   </c></rc>
    <rc><c>   1</c><c>C </c><c>     12.01100000</c><c>      4.00000000</c><c>  PAW_PBE C 08Apr2002                   </c></rc>
    <rc><c>  32</c><c>O </c><c>     16.00000000</c><c>      6.00000000</c><c>  PAW_PBE O 08Apr2002                   </c></rc>
    <rc><c>   1</c><c>Ru</c><c>    101.07000000</c><c>      8.00000000</c><c>  PAW_PBE Ru 04Feb2005                  </c></rc>
    <rc><c>  15</c><c>Ir</c><c>    192.22000000</c><c>      9.00000000</c><c>  PAW_PBE Ir 06Sep2000                  </c></rc>
   </set>
  </array>
 </atominfo>
 <structure name="initialpos" >
  <crystal>
   <varray name="basis" >
    <v>       6.36215693       0.00000000       0.00000000 </v>
    <v>       0.00000000       6.38448299       0.00000000 </v>
    <v>       0.00000000       0.00000000      22.02159841 </v>
   </varray>
   <i name="volume">    894.49712699 </i>
   <varray name="rec_basis" >
    <v>       0.15717940       0.00000000       0.00000000 </v>
    <v>       0.00000000       0.15662975       0.00000000 </v>
    <v>       0.00000000       0.00000000       0.04540996 </v>
   </varray>
  </crystal>
  <varray name="positions" >
   <v>       0.57352149       0.33289075       0.54234754 </v>
   <v>       0.58396847       0.64308521       0.56751847 </v>
   <v>       0.72372245       0.38685617       0.60921924 </v>
   <v>       0.44281543       0.38375135       0.61274562 </v>
   <v>       0.57885902       0.42370707       0.58451996 </v>
   <v>       0.08911000       0.35546000       0.00000000 </v>
   <v>       0.58911000       0.35546000       0.00000000 </v>
   <v>       0.33911000       0.04693000       0.05551000 </v>
   <v>       0.83911000       0.04693000       0.05551000 </v>
   <v>       0.33911000       0.66399000       0.05551000 </v>
   <v>       0.83911000       0.66399000       0.05551000 </v>
   <v>       0.08911000       0.35546000       0.11102000 </v>
   <v>       0.58911000       0.35546000       0.11102000 </v>
   <v>       0.08911000       0.85546000       0.14496000 </v>
   <v>       0.58911000       0.85546000       0.14496000 </v>
   <v>       0.33911000       0.16399000       0.20047000 </v>
   <v>       0.83911000       0.16399000       0.20047000 </v>
   <v>       0.33911000       0.54693000       0.20047000 </v>
   <v>       0.83911000       0.54693000       0.20047000 </v>
   <v>       0.08911000       0.85546000       0.25598000 </v>
   <v>       0.58911000       0.85546000       0.25598000 </v>
   <v>       0.08915000       0.35538000       0.28954000 </v>
   <v>       0.58916000       0.35538000       0.28954000 </v>
   <v>       0.33915000       0.04669000       0.34622000 </v>
   <v>       0.83915000       0.04671000       0.34618000 </v>
   <v>       0.33915000       0.66422000       0.34618000 </v>
   <v>       0.83914000       0.66420000       0.34614000 </v>
   <v>       0.08898000       0.35582000       0.40003000 </v>
   <v>       0.58936000       0.35583000       0.40003000 </v>
   <v>       0.08479000       0.85550000       0.43592000 </v>
   <v>       0.59350000       0.85550000       0.43594000 </v>
   <v>       0.33914000       0.16552000       0.49407000 </v>
   <v>       0.83916000       0.16626000       0.49473000 </v>
   <v>       0.83915000       0.54464000       0.49474000 </v>
   <v>       0.33915000       0.54536000       0.49408000 </v>
   <v>       0.08395000       0.85548000       0.54509000 </v>
   <v>       0.59433000       0.85551000       0.54506000 </v>
   <v>       0.83916000       0.85544000       0.49512000 </v>
   <v>       0.33911000       0.35546000       0.05551000 </v>
   <v>       0.83911000       0.35546000       0.05551000 </v>
   <v>       0.08911000       0.85546000       0.05551000 </v>
   <v>       0.58911000       0.85546000       0.05551000 </v>
   <v>       0.08911000       0.35546000       0.20047000 </v>
   <v>       0.58911000       0.35546000       0.20047000 </v>
   <v>       0.33911000       0.85546000       0.20047000 </v>
   <v>       0.83911000       0.85546000       0.20047000 </v>
   <v>       0.83916000       0.35543000       0.34496000 </v>
   <v>       0.33916000       0.35544000       0.34502000 </v>
   <v>       0.08901000       0.85544000       0.34649000 </v>
   <v>       0.58926000       0.85544000       0.34650000 </v>
   <v>       0.08857000       0.35542000       0.48833000 </v>
   <v>       0.58970000       0.35542000       0.48833000 </v>
   <v>       0.33913000       0.85543000       0.49196000 </v>
  </varray>
  <varray name="selective"  type="logical" >
   <v type="logical" >  T  T  T </v>
   <v type="logical" >  T  T  T </v>
   <v type="logical" >  T  T  T </v>
   <v type="logical" >  T  T  T </v>
   <v type="logical" >  T  T  T </v>
   <v type="logical" >  F  F  F </v>
   <v type="logical" >  F  F  F </v>
   <v type="logical" >  F  F  F </v>
   <v type="logical" >  F  F  F </v>
   <v type="logical" >  F  F  F </v>
   <v type="logical" >  F  F  F </v>
   <v type="logical" >  F  F  F </v>
   <v type="logical" >  F  F  F </v>
   <v type="logical" >  F  F  F </v>
   <v type="logical" >  F  F  F </v>
   <v type="logical" >  F  F  F </v>
   <v type="logical" >  F  F  F </v>
   <v type="logical" >  F  F  F </v>
   <v type="logical" >  F  F  F </v>
   <v type="logical" >  F  F  F </v>
   <v type="logical" >  F  F  F </v>
   <v type="logical" >  T  T  T </v>
   <v type="logical" >  T  T  T </v>
   <v type="logical" >  T  T  T </v>
   <v type="logical" >  T  T  T </v>
   <v type="logical" >  T  T  T </v>
   <v type="logical" >  T  T  T </v>
   <v type="logical" >  T  T  T </v>
   <v type="logical" >  T  T  T </v>
   <v type="logical" >  T  T  T </v>
   <v type="logical" >  T  T  T </v>
   <v type="logical" >  T  T  T </v>
   <v type="logical" >  T  T  T </v>
   <v type="logical" >  T  T  T </v>
   <v type="logical" >  T  T  T </v>
   <v type="logical" >  T  T  T </v>
   <v type="logical" >  T  T  T </v>
   <v type="logical" >  T  T  T </v>
   <v type="logical" >  F  F  F </v>
   <v type="logical" >  F  F  F </v>
   <v type="logical" >  F  F  F </v>
   <v type="logical" >  F  F  F </v>
   <v type="logical" >  F  F  F </v>
   <v type="logical" >  F  F  F </v>
   <v type="logical" >  F  F  F </v>
   <v type="logical" >  F  F  F </v>
   <v type="logical" >  T  T  T </v>
   <v type="logical" >  T  T  T </v>
   <v type="logical" >  T  T  T </v>
   <v type="logical" >  T  T  T </v>
   <v type="logical" >  T  T  T </v>
   <v type="logical" >  T  T  T </v>
   <v type="logical" >  T  T  T </v>
  </varray>
  <nose>
   <v>      -3.00000000       0.00000000       0.00010000       0.00010000 </v>
  </nose>
 </structure>
 <calculation>
  <scstep>
   <time name="dav">   52.48   52.55</time>
   <time name="total">   52.91   53.03</time>
   <energy>
    <i name="alphaZ">   1046.49137667 </i>
    <i name="ewald">  60851.39850457 </i>
    <i name="hartreedc"> -84057.34692570 </i>
    <i name="XCdc">    631.67456741 </i>
    <i name="pawpsdc">  19932.82671625 </i>
    <i name="pawaedc"> -19337.38706861 </i>
    <i name="eentropy">     -0.02508931 </i>
    <i name="bandstr">   1742.67293701 </i>
    <i name="atom">  22890.10489743 </i>
    <i name="e_fr_energy">   3700.40991571 </i>
    <i name="e_wo_entrp">   3700.43500501 </i>
    <i name="e_0_energy">   3700.42246036 </i>
   </energy>
  </scstep>
  <scstep>
   <time name="dav">   54.20   54.20</time>
   <time name="total">   54.20   54.22</time>
   <energy>
    <i name="e_fr_energy">    157.49261553 </i>
    <i name="e_wo_entrp">    157.51397450 </i>
    <i name="e_0_energy">    157.50329502 </i>
   </energy>
  </scstep>
  <scstep>
   <time name="dav">   61.76   61.77</time>
   <time name="total">   61.76   61.79</time>
   <energy>
    <i name="e_fr_energy">   -374.77379782 </i>
    <i name="e_wo_entrp">   -374.73948564 </i>
    <i name="e_0_energy">   -374.75664173 </i>
   </energy>
  </scstep>
  <scstep>
   <time name="dav">   62.14   62.15</time>
   <time name="total">   62.15   62.17</time>
   <energy>
    <i name="e_fr_energy">   -399.78780574 </i>
    <i name="e_wo_entrp">   -399.75475212 </i>
    <i name="e_0_energy">   -399.77127893 </i>
   </energy>
  </scstep>
  <scstep>
   <time name="dav">   62.06   62.07</time>
   <time name="total">   64.39   64.41</time>
   <energy>
    <i name="e_fr_energy">   -400.45917266 </i>
    <i name="e_wo_entrp">   -400.42601707 </i>
    <i name="e_0_energy">   -400.44259486 </i>
   </energy>
  </scstep>
  <scstep>
   <time name="diag">    9.44    9.44</time>
   <time name="diis">   32.45   32.45</time>
   <time name="orth">    1.49    1.49</time>
   <time name="total">   46.09   46.14</time>
   <energy>
    <i name="e_fr_energy">   -302.92378262 </i>
    <i name="e_wo_entrp">   -302.89029964 </i>
    <i name="e_0_energy">   -302.90704113 </i>
   </energy>
  </scstep>
  <scstep>
   <time name="diag">    9.44    9.44</time>
   <time name="diis">   33.39   33.39</time>
   <time name="orth">    1.49    1.49</time>
   <time name="total">   47.00   47.03</time>
   <energy>
    <i name="e_fr_energy">   -570.49013798 </i>
    <i name="e_wo_entrp">   -570.47832665 </i>
    <i name="e_0_energy">   -570.48423231 </i>
   </energy>
  </scstep>
  <scstep>
   <time name="diag">    9.44    9.44</time>
   <time name="diis">   32.52   32.53</time>
   <time name="orth">    1.49    1.49</time>
   <time name="total">   46.16   46.17</time>
   <energy>
    <i name="e_fr_energy">   -388.07921043 </i>
    <i name="e_wo_entrp">   -388.05121523 </i>
    <i name="e_0_energy">   -388.06521283 </i>
   </energy>
  </scstep>
  <scstep>
   <time name="diag">    9.44    9.45</time>
   <time name="diis">   32.39   32.39</time>
   <time name="orth">    1.49    1.49</time>
   <time name="total">   46.04   46.05</time>
   <energy>
    <i name="e_fr_energy">   -415.90207294 </i>
    <i name="e_wo_entrp">   -415.86884306 </i>
    <i name="e_0_energy">   -415.88545800 </i>
   </energy>
  </scstep>
  <scstep>
   <time name="diag">    9.45    9.45</time>
   <time name="diis">   32.37   32.37</time>
   <time name="orth">    1.49    1.49</time>
   <time name="total">   46.02   46.04</time>
   <energy>
    <i name="e_fr_energy">   -336.63873668 </i>
    <i name="e_wo_entrp">   -336.60544295 </i>
    <i name="e_0_energy">   -336.62208981 </i>
   </energy>
  </scstep>
  <scstep>
   <time name="diag">    9.48    9.48</time>
   <time name="diis">   32.40   32.40</time>
   <time name="orth">    1.49    1.49</time>
   <time name="total">   46.06   46.08</time>
   <energy>
    <i name="e_fr_energy">   -316.71421604 </i>
    <i name="e_wo_entrp">   -316.69104878 </i>
    <i name="e_0_energy">   -316.70263241 </i>
   </energy>
  </scstep>
  <scstep>
   <time name="diag">    9.47    9.47</time>
   <time name="diis">   32.37   32.37</time>
   <time name="orth">    1.49    1.49</time>
   <time name="total">   46.04   46.06</time>
   <energy>
    <i name="e_fr_energy">   -308.56397376 </i>
    <i name="e_wo_entrp">   -308.52891140 </i>
    <i name="e_0_energy">   -308.54644258 </i>
   </energy>
  </scstep>
  <scstep>
   <time name="diag">    9.47    9.47</time>
   <time name="diis">   32.41   32.41</time>
   <time name="orth">    1.49    1.49</time>
   <time name="total">   46.07   46.09</time>
   <energy>
    <i name="e_fr_energy">   -306.19737430 </i>
    <i name="e_wo_entrp">   -306.16981966 </i>
    <i name="e_0_energy">   -306.18359698 </i>
   </energy>
  </scstep>
  <scstep>
   <time name="diag">    9.48    9.48</time>
   <time name="diis">   32.44   32.44</time>
   <time name="orth">    1.49    1.49</time>
   <time name="total">   46.12   46.14</time>
   <energy>
    <i name="e_fr_energy">   -312.24717249 </i>
    <i name="e_wo_entrp">   -312.22295799 </i>
    <i name="e_0_energy">   -312.23506524 </i>
   </energy>
  </scstep>
  <scstep>
   <time name="diag">    9.49    9.49</time>
   <time name="diis">   32.37   32.37</time>
   <time name="orth">    1.49    1.49</time>
   <time name="total">   46.05   46.07</time>
   <energy>
    <i name="e_fr_energy">   -314.27003343 </i>
    <i name="e_wo_entrp">   -314.22948691 </i>
    <i name="e_0_energy">   -314.24976017 </i>
   </energy>
  </scstep>
  <scstep>
   <time name="diag">    9.44    9.44</time>
   <time name="diis">   32.44   32.44</time>
   <time name="orth">    1.49    1.49</time>
   <time name="total">   46.09   46.11</time>
   <energy>
    <i name="e_fr_energy">   -323.34711507 </i>
    <i name="e_wo_entrp">   -323.31430554 </i>
    <i name="e_0_energy">   -323.33071030 </i>
   </energy>
  </scstep>
  <scstep>
   <time name="diag">    9.44    9.44</time>
   <time name="diis">   32.38   32.38</time>
   <time name="orth">    1.49    1.49</time>
   <time name="total">   46.03   46.05</time>
   <energy>
    <i name="e_fr_energy">   -331.70108870 </i>
    <i name="e_wo_entrp">   -331.67695308 </i>
    <i name="e_0_energy">   -331.68902089 </i>
   </energy>
  </scstep>
  <scstep>
   <time name="diag">   10.11   10.11</time>
   <time name="diis">   32.52   32.52</time>
   <time name="orth">    1.49    1.49</time>
   <time name="total">   46.84   46.87</time>
   <energy>
    <i name="e_fr_energy">   -335.67354848 </i>
    <i name="e_wo_entrp">   -335.64327710 </i>
    <i name="e_0_energy">   -335.65841279 </i>
   </energy>
  </scstep>
  <scstep>
   <time name="diag">    9.44    9.44</time>
   <time name="diis">   32.43   32.43</time>
   <time name="orth">    1.49    1.49</time>
   <time name="total">   46.09   46.11</time>
   <energy>
    <i name="e_fr_energy">   -340.80659137 </i>
    <i name="e_wo_entrp">   -340.77353173 </i>
    <i name="e_0_energy">   -340.79006155 </i>
   </energy>
  </scstep>
  <scstep>
   <time name="diag">    9.44    9.44</time>
   <time name="diis">   32.65   32.65</time>
   <time name="orth">    1.49    1.49</time>
   <time name="total">   46.30   46.32</time>
   <energy>
    <i name="e_fr_energy">   -341.92130364 </i>
    <i name="e_wo_entrp">   -341.89509653 </i>
    <i name="e_0_energy">   -341.90820008 </i>
   </energy>
  </scstep>
  <scstep>
   <time name="diag">    9.42    9.42</time>
   <time name="diis">   32.40   32.40</time>
   <time name="orth">    1.50    1.50</time>
   <time name="total">   46.05   46.06</time>
   <energy>
    <i name="e_fr_energy">   -347.26800388 </i>
    <i name="e_wo_entrp">   -347.23995225 </i>
    <i name="e_0_energy">   -347.25397806 </i>
   </energy>
  </scstep>
  <scstep>
   <time name="diag">    9.42    9.42</time>
   <time name="diis">   32.35   32.35</time>
   <time name="orth">    1.50    1.50</time>
   <time name="total">   45.99   46.01</time>
   <energy>
    <i name="e_fr_energy">   -348.64466257 </i>
    <i name="e_wo_entrp">   -348.60441858 </i>
    <i name="e_0_energy">   -348.62454058 </i>
   </energy>
  </scstep>
  <scstep>
   <time name="diag">    9.42    9.42</time>
   <time name="diis">   32.31   32.31</time>
   <time name="orth">    1.49    1.50</time>
   <time name="total">   45.95   45.97</time>
   <energy>
    <i name="e_fr_energy">   -349.20866053 </i>
    <i name="e_wo_entrp">   -349.17370557 </i>
    <i name="e_0_energy">   -349.19118305 </i>
   </energy>
  </scstep>
  <scstep>
   <time name="diag">    9.43    9.43</time>
   <time name="diis">   32.31   32.31</time>
   <time name="orth">    1.50    1.50</time>
   <time name="total">   45.97   45.99</time>
   <energy>
    <i name="e_fr_energy">   -349.31141565 </i>
    <i name="e_wo_entrp">   -349.27951050 </i>
    <i name="e_0_energy">   -349.29546307 </i>
   </energy>
  </scstep>
  <scstep>
   <time name="diag">    9.41    9.41</time>
   <time name="diis">   32.33   32.34</time>
   <time name="orth">    1.50    1.50</time>
   <time name="total">   45.96   45.99</time>
   <energy>
    <i name="e_fr_energy">   -349.66092364 </i>
    <i name="e_wo_entrp">   -349.62348538 </i>
    <i name="e_0_energy">   -349.64220451 </i>
   </energy>
  </scstep>
  <scstep>
   <time name="diag">    9.40    9.40</time>
   <time name="diis">   32.40   32.40</time>
   <time name="orth">    1.49    1.49</time>
   <time name="total">   46.03   46.05</time>
   <energy>
    <i name="e_fr_energy">   -349.76075024 </i>
    <i name="e_wo_entrp">   -349.72254308 </i>
    <i name="e_0_energy">   -349.74164666 </i>
   </energy>
  </scstep>
  <scstep>
   <time name="diag">    9.40    9.40</time>
   <time name="diis">   32.41   32.42</time>
   <time name="orth">    1.49    1.49</time>
   <time name="total">   46.04   46.06</time>
   <energy>
    <i name="e_fr_energy">   -350.01957635 </i>
    <i name="e_wo_entrp">   -349.98088736 </i>
    <i name="e_0_energy">   -350.00023186 </i>
   </energy>
  </scstep>
  <scstep>
   <time name="diag">    9.40    9.40</time>
   <time name="diis">   32.85   32.85</time>
   <time name="orth">    1.49    1.49</time>
   <time name="total">   46.48   46.50</time>
   <energy>
    <i name="e_fr_energy">   -350.03348742 </i>
    <i name="e_wo_entrp">   -349.99597357 </i>
    <i name="e_0_energy">   -350.01473049 </i>
   </energy>
  </scstep>
  <scstep>
   <time name="diag">    9.41    9.41</time>
   <time name="diis">   32.47   32.48</time>
   <time name="orth">    1.49    1.49</time>
   <time name="total">   46.11   46.13</time>
   <energy>
    <i name="e_fr_energy">   -350.03319665 </i>
    <i name="e_wo_entrp">   -349.99673677 </i>
    <i name="e_0_energy">   -350.01496671 </i>
   </energy>
  </scstep>
  <scstep>
   <time name="diag">    9.40    9.40</time>
   <time name="diis">   32.39   32.39</time>
   <time name="orth">    1.48    1.48</time>
   <time name="total">   46.02   46.04</time>
   <energy>
    <i name="e_fr_energy">   -350.03155895 </i>
    <i name="e_wo_entrp">   -349.99570451 </i>
    <i name="e_0_energy">   -350.01363173 </i>
   </energy>
  </scstep>
  <scstep>
   <time name="diag">    9.40    9.40</time>
   <time name="diis">   32.37   32.38</time>
   <time name="orth">    1.49    1.49</time>
   <time name="total">   45.99   46.01</time>
   <energy>
    <i name="e_fr_energy">   -349.97302361 </i>
    <i name="e_wo_entrp">   -349.93649576 </i>
    <i name="e_0_energy">   -349.95475968 </i>
   </energy>
  </scstep>
  <scstep>
   <time name="diag">    9.41    9.41</time>
   <time name="diis">   32.39   32.39</time>
   <time name="orth">    1.49    1.49</time>
   <time name="total">   46.02   46.03</time>
   <energy>
    <i name="e_fr_energy">   -349.94138577 </i>
    <i name="e_wo_entrp">   -349.90455997 </i>
    <i name="e_0_energy">   -349.92297287 </i>
   </energy>
  </scstep>
  <scstep>
   <time name="diag">    9.40    9.40</time>
   <time name="diis">   32.40   32.40</time>
   <time name="orth">    1.49    1.49</time>
   <time name="total">   46.03   46.04</time>
   <energy>
    <i name="e_fr_energy">   -349.96212728 </i>
    <i name="e_wo_entrp">   -349.92472120 </i>
    <i name="e_0_energy">   -349.94342424 </i>
   </energy>
  </scstep>
  <scstep>
   <time name="diag">    9.40    9.40</time>
   <time name="diis">   32.47   32.48</time>
   <time name="orth">    1.49    1.49</time>
   <time name="total">   46.11   46.12</time>
   <energy>
    <i name="e_fr_energy">   -349.97943760 </i>
    <i name="e_wo_entrp">   -349.94198517 </i>
    <i name="e_0_energy">   -349.96071138 </i>
   </energy>
  </scstep>
  <scstep>
   <time name="diag">    9.40    9.41</time>
   <time name="diis">   32.35   32.35</time>
   <time name="orth">    1.49    1.49</time>
   <time name="total">   45.99   46.00</time>
   <energy>
    <i name="e_fr_energy">   -350.01055574 </i>
    <i name="e_wo_entrp">   -349.97329903 </i>
    <i name="e_0_energy">   -349.99192738 </i>
   </energy>
  </scstep>
  <scstep>
   <time name="diag">    9.44    9.44</time>
   <time name="diis">   31.15   31.15</time>
   <time name="orth">    1.49    1.49</time>
   <time name="total">   44.81   44.83</time>
   <energy>
    <i name="e_fr_energy">   -350.02142349 </i>
    <i name="e_wo_entrp">   -349.98397624 </i>
    <i name="e_0_energy">   -350.00269987 </i>
   </energy>
  </scstep>
  <scstep>
   <time name="diag">    9.44    9.44</time>
   <time name="diis">   30.97   30.98</time>
   <time name="orth">    1.49    1.49</time>
   <time name="total">   44.63   44.66</time>
   <energy>
    <i name="e_fr_energy">   -350.02440365 </i>
    <i name="e_wo_entrp">   -349.98705066 </i>
    <i name="e_0_energy">   -350.00572716 </i>
   </energy>
  </scstep>
  <scstep>
   <time name="diag">    9.44    9.44</time>
   <time name="diis">   29.74   29.74</time>
   <time name="orth">    1.49    1.49</time>
   <time name="total">   43.40   43.42</time>
   <energy>
    <i name="e_fr_energy">   -350.02170012 </i>
    <i name="e_wo_entrp">   -349.98417118 </i>
    <i name="e_0_energy">   -350.00293565 </i>
   </energy>
  </scstep>
  <scstep>
   <time name="diag">    9.44    9.44</time>
   <time name="diis">   26.79   26.79</time>
   <time name="orth">    1.49    1.49</time>
   <time name="total">   40.45   40.47</time>
   <energy>
    <i name="e_fr_energy">   -350.02057685 </i>
    <i name="e_wo_entrp">   -349.98297177 </i>
    <i name="e_0_energy">   -350.00177431 </i>
   </energy>
  </scstep>
  <scstep>
   <time name="diag">    9.44    9.44</time>
   <time name="diis">   28.48   28.48</time>
   <time name="orth">    1.49    1.49</time>
   <time name="total">   42.14   42.16</time>
   <energy>
    <i name="e_fr_energy">   -350.02517709 </i>
    <i name="e_wo_entrp">   -349.98732392 </i>
    <i name="e_0_energy">   -350.00625050 </i>
   </energy>
  </scstep>
  <scstep>
   <time name="diag">    9.37    9.37</time>
   <time name="diis">   29.69   29.69</time>
   <time name="orth">    1.49    1.49</time>
   <time name="total">   43.28   43.30</time>
   <energy>
    <i name="e_fr_energy">   -350.03572400 </i>
    <i name="e_wo_entrp">   -349.99734327 </i>
    <i name="e_0_energy">   -350.01653364 </i>
   </energy>
  </scstep>
  <scstep>
   <time name="diag">    9.38    9.38</time>
   <time name="diis">   30.14   30.15</time>
   <time name="orth">    1.49    1.49</time>
   <time name="total">   43.75   43.76</time>
   <energy>
    <i name="e_fr_energy">   -350.04923655 </i>
    <i name="e_wo_entrp">   -350.01001027 </i>
    <i name="e_0_energy">   -350.02962341 </i>
   </energy>
  </scstep>
  <scstep>
   <time name="diag">    9.38    9.38</time>
   <time name="diis">   25.78   25.78</time>
   <time name="orth">    1.49    1.49</time>
   <time name="total">   39.39   39.40</time>
   <energy>
    <i name="e_fr_energy">   -350.05381735 </i>
    <i name="e_wo_entrp">   -350.01458630 </i>
    <i name="e_0_energy">   -350.03420183 </i>
   </energy>
  </scstep>
  <scstep>
   <time name="diag">    9.39    9.39</time>
   <time name="diis">   22.28   22.29</time>
   <time name="orth">    1.49    1.49</time>
   <time name="total">   35.90   35.92</time>
   <energy>
    <i name="e_fr_energy">   -350.05585553 </i>
    <i name="e_wo_entrp">   -350.01649733 </i>
    <i name="e_0_energy">   -350.03617643 </i>
   </energy>
  </scstep>
  <scstep>
   <time name="diag">    9.38    9.38</time>
   <time name="diis">   20.75   20.75</time>
   <time name="orth">    1.49    1.49</time>
   <time name="total">   34.36   34.37</time>
   <energy>
    <i name="e_fr_energy">   -350.05715092 </i>
    <i name="e_wo_entrp">   -350.01797482 </i>
    <i name="e_0_energy">   -350.03756287 </i>
   </energy>
  </scstep>
  <scstep>
   <time name="diag">    9.42    9.43</time>
   <time name="diis">   20.21   20.21</time>
   <time name="orth">    1.49    1.49</time>
   <time name="total">   33.87   33.89</time>
   <energy>
    <i name="e_fr_energy">   -350.05794801 </i>
    <i name="e_wo_entrp">   -350.01893482 </i>
    <i name="e_0_energy">   -350.03844141 </i>
   </energy>
  </scstep>
  <scstep>
   <time name="diag">    9.43    9.43</time>
   <time name="diis">   20.16   20.16</time>
   <time name="orth">    1.49    1.49</time>
   <time name="total">   33.84   33.85</time>
   <energy>
    <i name="e_fr_energy">   -350.05842800 </i>
    <i name="e_wo_entrp">   -350.01927180 </i>
    <i name="e_0_energy">   -350.03884990 </i>
   </energy>
  </scstep>
  <scstep>
   <time name="diag">    9.43    9.43</time>
   <time name="diis">   19.89   19.90</time>
   <time name="orth">    1.49    1.49</time>
   <time name="total">   33.57   33.58</time>
   <energy>
    <i name="e_fr_energy">   -350.05905082 </i>
    <i name="e_wo_entrp">   -350.01985179 </i>
    <i name="e_0_energy">   -350.03945130 </i>
   </energy>
  </scstep>
  <scstep>
   <time name="diag">    9.42    9.42</time>
   <time name="diis">   19.99   20.00</time>
   <time name="orth">    1.49    1.49</time>
   <time name="total">   33.67   33.68</time>
   <energy>
    <i name="e_fr_energy">   -350.05976135 </i>
    <i name="e_wo_entrp">   -350.02065379 </i>
    <i name="e_0_energy">   -350.04020757 </i>
   </energy>
  </scstep>
  <scstep>
   <time name="diag">    9.43    9.43</time>
   <time name="diis">   20.07   20.07</time>
   <time name="orth">    1.50    1.50</time>
   <time name="total">   33.75   33.77</time>
   <energy>
    <i name="e_fr_energy">   -350.06041531 </i>
    <i name="e_wo_entrp">   -350.02121846 </i>
    <i name="e_0_energy">   -350.04081688 </i>
   </energy>
  </scstep>
  <scstep>
   <time name="diag">    9.43    9.43</time>
   <time name="diis">   20.20   20.20</time>
   <time name="orth">    1.50    1.50</time>
   <time name="total">   33.88   33.90</time>
   <energy>
    <i name="e_fr_energy">   -350.06000524 </i>
    <i name="e_wo_entrp">   -350.02096445 </i>
    <i name="e_0_energy">   -350.04048484 </i>
   </energy>
  </scstep>
  <scstep>
   <time name="diag">    9.44    9.44</time>
   <time name="diis">   19.45   19.45</time>
   <time name="orth">    1.49    1.49</time>
   <time name="total">   33.13   33.15</time>
   <energy>
    <i name="e_fr_energy">   -350.06020906 </i>
    <i name="e_wo_entrp">   -350.02117874 </i>
    <i name="e_0_energy">   -350.04069390 </i>
   </energy>
  </scstep>
  <scstep>
   <time name="diag">    9.43    9.43</time>
   <time name="diis">   19.43   19.43</time>
   <time name="orth">    1.49    1.49</time>
   <time name="total">   30.74   30.76</time>
   <energy>
    <i name="alphaZ">   1046.49137667 </i>
    <i name="ewald">  60851.39850457 </i>
    <i name="hartreedc"> -84251.81111949 </i>
    <i name="XCdc">    648.67575308 </i>
    <i name="pawpsdc">  31385.76313923 </i>
    <i name="pawaedc"> -30851.70624854 </i>
    <i name="eentropy">     -0.03903948 </i>
    <i name="bandstr">  -2068.93740096 </i>
    <i name="atom">  22890.10489743 </i>
    <i name="e_fr_energy">   -350.06013751 </i>
    <i name="e_wo_entrp">   -350.02109802 </i>
    <i name="e_0_energy">   -350.04061777 </i>
   </energy>
  </scstep>
  <structure>
   <crystal>
    <varray name="basis" >
     <v>       6.36215693       0.00000000       0.00000000 </v>
     <v>       0.00000000       6.38448299       0.00000000 </v>
     <v>       0.00000000       0.00000000      22.02159841 </v>
    </varray>
    <i name="volume">    894.49712699 </i>
    <varray name="rec_basis" >
     <v>       0.15717940       0.00000000       0.00000000 </v>
     <v>       0.00000000       0.15662975       0.00000000 </v>
     <v>       0.00000000       0.00000000       0.04540996 </v>
    </varray>
   </crystal>
   <varray name="positions" >
    <v>       0.57352149       0.33289075       0.54234754 </v>
    <v>       0.58396847       0.64308521       0.56751847 </v>
    <v>       0.72372245       0.38685617       0.60921924 </v>
    <v>       0.44281543       0.38375135       0.61274562 </v>
    <v>       0.57885902       0.42370707       0.58451996 </v>
    <v>       0.08911000       0.35546000       0.00000000 </v>
    <v>       0.58911000       0.35546000       0.00000000 </v>
    <v>       0.33911000       0.04693000       0.05551000 </v>
    <v>       0.83911000       0.04693000       0.05551000 </v>
    <v>       0.33911000       0.66399000       0.05551000 </v>
    <v>       0.83911000       0.66399000       0.05551000 </v>
    <v>       0.08911000       0.35546000       0.11102000 </v>
    <v>       0.58911000       0.35546000       0.11102000 </v>
    <v>       0.08911000       0.85546000       0.14496000 </v>
    <v>       0.58911000       0.85546000       0.14496000 </v>
    <v>       0.33911000       0.16399000       0.20047000 </v>
    <v>       0.83911000       0.16399000       0.20047000 </v>
    <v>       0.33911000       0.54693000       0.20047000 </v>
    <v>       0.83911000       0.54693000       0.20047000 </v>
    <v>       0.08911000       0.85546000       0.25598000 </v>
    <v>       0.58911000       0.85546000       0.25598000 </v>
    <v>       0.08915000       0.35538000       0.28954000 </v>
    <v>       0.58916000       0.35538000       0.28954000 </v>
    <v>       0.33915000       0.04669000       0.34622000 </v>
    <v>       0.83915000       0.04671000       0.34618000 </v>
    <v>       0.33915000       0.66422000       0.34618000 </v>
    <v>       0.83914000       0.66420000       0.34614000 </v>
    <v>       0.08898000       0.35582000       0.40003000 </v>
    <v>       0.58936000       0.35583000       0.40003000 </v>
    <v>       0.08479000       0.85550000       0.43592000 </v>
    <v>       0.59350000       0.85550000       0.43594000 </v>
    <v>       0.33914000       0.16552000       0.49407000 </v>
    <v>       0.83916000       0.16626000       0.49473000 </v>
    <v>       0.83915000       0.54464000       0.49474000 </v>
    <v>       0.33915000       0.54536000       0.49408000 </v>
    <v>       0.08395000       0.85548000       0.54509000 </v>
    <v>       0.59433000       0.85551000       0.54506000 </v>
    <v>       0.83916000       0.85544000       0.49512000 </v>
    <v>       0.33911000       0.35546000       0.05551000 </v>
    <v>       0.83911000       0.35546000       0.05551000 </v>
    <v>       0.08911000       0.85546000       0.05551000 </v>
    <v>       0.58911000       0.85546000       0.05551000 </v>
    <v>       0.08911000       0.35546000       0.20047000 </v>
    <v>       0.58911000       0.35546000       0.20047000 </v>
    <v>       0.33911000       0.85546000       0.20047000 </v>
    <v>       0.83911000       0.85546000       0.20047000 </v>
    <v>       0.83916000       0.35543000       0.34496000 </v>
    <v>       0.33916000       0.35544000       0.34502000 </v>
    <v>       0.08901000       0.85544000       0.34649000 </v>
    <v>       0.58926000       0.85544000       0.34650000 </v>
    <v>       0.08857000       0.35542000       0.48833000 </v>
    <v>       0.58970000       0.35542000       0.48833000 </v>
    <v>       0.33913000       0.85543000       0.49196000 </v>
   </varray>
  </structure>
  <varray name="forces" >
   <v>      -2.04033550      -5.38209177      19.12821336 </v>
   <v>      -0.10258754      -2.19602703       1.41463838 </v>
   <v>       0.10700490      -0.11460735      -0.35941623 </v>
   <v>      -0.25257211      -0.13340548      -0.61906039 </v>
   <v>       0.80457120       4.79203659       2.42723760 </v>
   <v>      -0.00380134      -0.00362906       0.58364580 </v>
   <v>       0.00196196      -0.00323806       0.60007022 </v>
   <v>       0.00626747       0.03013579      -0.65087445 </v>
   <v>       0.00191821       0.02967181      -0.65003573 </v>
   <v>       0.00207523      -0.01828331      -0.65219880 </v>
   <v>      -0.00367744      -0.01671412      -0.65159557 </v>
   <v>      -0.00533676      -0.00009596       0.22118089 </v>
   <v>       0.00112756      -0.00417336       0.23742702 </v>
   <v>      -0.00036405       0.00214485      -0.11823751 </v>
   <v>      -0.00786096      -0.00310814      -0.13262016 </v>
   <v>       0.00179333       0.02668449      -0.03521805 </v>
   <v>      -0.00006172       0.02718727      -0.03987915 </v>
   <v>       0.00438171      -0.03204987      -0.03406376 </v>
   <v>       0.00365848      -0.03336527      -0.03986440 </v>
   <v>       0.00121271       0.01168130       0.53452280 </v>
   <v>       0.01053176       0.00804815       0.49043969 </v>
   <v>       0.02950155      -0.00195609       0.24179244 </v>
   <v>       0.00361787      -0.00305724       0.00353147 </v>
   <v>      -0.01849402       0.02717836      -0.03819303 </v>
   <v>       0.01724240       0.02349802      -0.04968046 </v>
   <v>      -0.01353581      -0.03067569      -0.03036720 </v>
   <v>       0.02148424      -0.03262366      -0.03855473 </v>
   <v>      -0.00538589       0.01958072      -0.04050596 </v>
   <v>       0.09085833      -0.21511131      -1.37912218 </v>
   <v>       0.08305998       0.03534001       0.12360744 </v>
   <v>      -0.03597204      -0.00716697       0.05674267 </v>
   <v>      -0.59010705      -0.37721261      -0.40916674 </v>
   <v>       0.46984118      -0.39643932      -0.23896244 </v>
   <v>       0.81440490       0.57282754      -0.50720739 </v>
   <v>      -0.93891206       0.49098803      -0.72271282 </v>
   <v>       0.07302751       0.00598131       0.12799106 </v>
   <v>      -0.31702615      -0.41168552       1.01161773 </v>
   <v>       0.73863881       0.10999582      -0.98195391 </v>
   <v>      -0.00154899      -0.01163688      -0.81260428 </v>
   <v>      -0.00045883      -0.00915980      -0.81583628 </v>
   <v>      -0.00770691      -0.00092615       1.51313726 </v>
   <v>       0.00083898      -0.00135005       1.51379192 </v>
   <v>       0.01115609       0.00870511      -0.35713802 </v>
   <v>      -0.00712769       0.00728576      -0.33366947 </v>
   <v>       0.00431714       0.00212316      -0.24982335 </v>
   <v>      -0.01037497       0.00457655      -0.21574986 </v>
   <v>      -0.42717584       0.00514852      -0.03714664 </v>
   <v>       0.38076254      -0.01951249       0.00274481 </v>
   <v>       0.01668022      -0.00522214       0.05130043 </v>
   <v>      -0.01997753      -0.01443514       0.01650090 </v>
   <v>      -0.01910181      -0.03731459      -0.06933289 </v>
   <v>       1.62250518       3.18446952     -18.29896409 </v>
   <v>      -0.49493842       0.09098579      -0.69037794 </v>
  </varray>
  <varray name="stress" >
   <v>      -8.18649909       0.74121918      -3.17577005 </v>
   <v>       0.74121912     -11.50177852      -1.42578453 </v>
   <v>      -3.17576996      -1.42578449      51.71234960 </v>
  </varray>
  <energy>
   <i name="e_fr_energy">   -360.25368546 </i>
   <i name="e_wo_entrp">   -360.23416572 </i>
   <i name="e_0_energy">     -0.03903948 </i>
  </energy>
  <time name="totalsc"> 2423.41 2424.61</time>
 </calculation>
 <calculation>
  <scstep>
   <time name="dav">   53.53   53.54</time>
   <time name="total">   56.27   56.27</time>
   <energy>
    <i name="alphaZ">   1046.49137667 </i>
    <i name="ewald">  61148.09542165 </i>
    <i name="hartreedc"> -84554.00254666 </i>
    <i name="XCdc">    648.53940688 </i>
    <i name="pawpsdc">  31385.81716274 </i>
    <i name="pawaedc"> -30851.76036825 </i>
    <i name="eentropy">     -0.04488201 </i>
    <i name="bandstr">  -2066.09396846 </i>
    <i name="atom">  22890.10489743 </i>
    <i name="e_fr_energy">   -352.85350002 </i>
    <i name="e_wo_entrp">   -352.80861800 </i>
    <i name="e_0_energy">   -352.83105901 </i>
   </energy>
  </scstep>
  <scstep>
   <time name="diag">    9.47    9.47</time>
   <time name="diis">   32.44   32.45</time>
   <time name="orth">    1.49    1.49</time>
   <time name="total">   46.12   46.13</time>
   <energy>
    <i name="e_fr_energy">   -355.90344597 </i>
    <i name="e_wo_entrp">   -355.85764886 </i>
    <i name="e_0_energy">   -355.88054742 </i>
   </energy>
  </scstep>
  <scstep>
   <time name="diag">    9.48    9.48</time>
   <time name="diis">   32.84   32.84</time>
   <time name="orth">    1.49    1.49</time>
   <time name="total">   46.53   46.55</time>
   <energy>
    <i name="e_fr_energy">   -354.92612009 </i>
    <i name="e_wo_entrp">   -354.88694985 </i>
    <i name="e_0_energy">   -354.90653497 </i>
   </energy>
  </scstep>
  <scstep>
   <time name="diag">    9.48    9.48</time>
   <time name="diis">   32.55   32.56</time>
   <time name="orth">    1.49    1.49</time>
   <time name="total">   46.23   46.25</time>
   <energy>
    <i name="e_fr_energy">   -353.49471890 </i>
    <i name="e_wo_entrp">   -353.46105457 </i>
    <i name="e_0_energy">   -353.47788673 </i>
   </energy>
  </scstep>
  <scstep>
   <time name="diag">    9.48    9.48</time>
   <time name="diis">   32.47   32.48</time>
   <time name="orth">    1.49    1.49</time>
   <time name="total">   46.15   46.17</time>
   <energy>
    <i name="e_fr_energy">   -353.00038777 </i>
    <i name="e_wo_entrp">   -352.96191997 </i>
    <i name="e_0_energy">   -352.98115387 </i>
   </energy>
  </scstep>
  <scstep>
   <time name="diag">    9.47    9.47</time>
   <time name="diis">   32.43   32.44</time>
   <time name="orth">    1.49    1.49</time>
   <time name="total">   46.12   46.13</time>
   <energy>
    <i name="e_fr_energy">   -352.86347497 </i>
    <i name="e_wo_entrp">   -352.82075377 </i>
    <i name="e_0_energy">   -352.84211437 </i>
   </energy>
  </scstep>
  <scstep>
   <time name="diag">    9.47    9.47</time>
   <time name="diis">   32.48   32.49</time>
   <time name="orth">    1.49    1.49</time>
   <time name="total">   46.16   46.18</time>
   <energy>
    <i name="e_fr_energy">   -352.87575364 </i>
    <i name="e_wo_entrp">   -352.83334602 </i>
    <i name="e_0_energy">   -352.85454983 </i>
   </energy>
  </scstep>
  <scstep>
   <time name="diag">    9.47    9.47</time>
   <time name="diis">   32.43   32.44</time>
   <time name="orth">    1.49    1.49</time>
   <time name="total">   46.13   46.14</time>
   <energy>
    <i name="e_fr_energy">   -352.87789123 </i>
    <i name="e_wo_entrp">   -352.84168051 </i>
    <i name="e_0_energy">   -352.85978587 </i>
   </energy>
  </scstep>
  <scstep>
   <time name="diag">    9.46    9.46</time>
   <time name="diis">   32.40   32.41</time>
   <time name="orth">    1.49    1.49</time>
   <time name="total">   46.08   46.11</time>
   <energy>
    <i name="e_fr_energy">   -352.84348639 </i>
    <i name="e_wo_entrp">   -352.80313761 </i>
    <i name="e_0_energy">   -352.82331200 </i>
   </energy>
  </scstep>
  <scstep>
   <time name="diag">    9.47    9.47</time>
   <time name="diis">   32.39   32.40</time>
   <time name="orth">    1.49    1.49</time>
   <time name="total">   46.08   46.09</time>
   <energy>
    <i name="e_fr_energy">   -352.83803872 </i>
    <i name="e_wo_entrp">   -352.79798983 </i>
    <i name="e_0_energy">   -352.81801428 </i>
   </energy>
  </scstep>
  <scstep>
   <time name="diag">    9.46    9.47</time>
   <time name="diis">   32.21   32.22</time>
   <time name="orth">    1.50    1.50</time>
   <time name="total">   45.89   45.91</time>
   <energy>
    <i name="e_fr_energy">   -352.83653573 </i>
    <i name="e_wo_entrp">   -352.79521347 </i>
    <i name="e_0_energy">   -352.81587460 </i>
   </energy>
  </scstep>
  <scstep>
   <time name="diag">    9.47    9.47</time>
   <time name="diis">   30.83   30.83</time>
   <time name="orth">    1.50    1.50</time>
   <time name="total">   44.52   44.54</time>
   <energy>
    <i name="e_fr_energy">   -352.83759985 </i>
    <i name="e_wo_entrp">   -352.79517697 </i>
    <i name="e_0_energy">   -352.81638841 </i>
   </energy>
  </scstep>
  <scstep>
   <time name="diag">    9.47    9.47</time>
   <time name="diis">   28.85   28.86</time>
   <time name="orth">    1.49    1.49</time>
   <time name="total">   42.54   42.55</time>
   <energy>
    <i name="e_fr_energy">   -352.83785530 </i>
    <i name="e_wo_entrp">   -352.79553432 </i>
    <i name="e_0_energy">   -352.81669481 </i>
   </energy>
  </scstep>
  <scstep>
   <time name="diag">    9.46    9.46</time>
   <time name="diis">   22.36   22.37</time>
   <time name="orth">    1.49    1.49</time>
   <time name="total">   36.04   36.06</time>
   <energy>
    <i name="e_fr_energy">   -352.83909299 </i>
    <i name="e_wo_entrp">   -352.79654319 </i>
    <i name="e_0_energy">   -352.81781809 </i>
   </energy>
  </scstep>
  <scstep>
   <time name="diag">    9.46    9.46</time>
   <time name="diis">   20.55   20.55</time>
   <time name="orth">    1.49    1.49</time>
   <time name="total">   34.22   34.24</time>
   <energy>
    <i name="e_fr_energy">   -352.83990342 </i>
    <i name="e_wo_entrp">   -352.79745986 </i>
    <i name="e_0_energy">   -352.81868164 </i>
   </energy>
  </scstep>
  <scstep>
   <time name="diag">    9.46    9.46</time>
   <time name="diis">   20.42   20.42</time>
   <time name="orth">    1.49    1.49</time>
   <time name="total">   34.09   34.11</time>
   <energy>
    <i name="e_fr_energy">   -352.84078738 </i>
    <i name="e_wo_entrp">   -352.79820407 </i>
    <i name="e_0_energy">   -352.81949573 </i>
   </energy>
  </scstep>
  <scstep>
   <time name="diag">    9.46    9.46</time>
   <time name="diis">   20.11   20.11</time>
   <time name="orth">    1.49    1.49</time>
   <time name="total">   33.79   33.81</time>
   <energy>
    <i name="e_fr_energy">   -352.84152394 </i>
    <i name="e_wo_entrp">   -352.79884288 </i>
    <i name="e_0_energy">   -352.82018341 </i>
   </energy>
  </scstep>
  <scstep>
   <time name="diag">    9.46    9.46</time>
   <time name="diis">   20.06   20.06</time>
   <time name="orth">    1.49    1.49</time>
   <time name="total">   33.73   33.75</time>
   <energy>
    <i name="e_fr_energy">   -352.84226825 </i>
    <i name="e_wo_entrp">   -352.79948801 </i>
    <i name="e_0_energy">   -352.82087813 </i>
   </energy>
  </scstep>
  <scstep>
   <time name="diag">    9.46    9.46</time>
   <time name="diis">   19.29   19.29</time>
   <time name="orth">    1.49    1.49</time>
   <time name="total">   32.96   32.98</time>
   <energy>
    <i name="e_fr_energy">   -352.84269091 </i>
    <i name="e_wo_entrp">   -352.79983374 </i>
    <i name="e_0_energy">   -352.82126232 </i>
   </energy>
  </scstep>
  <scstep>
   <time name="diag">    9.46    9.46</time>
   <time name="diis">   18.68   18.68</time>
   <time name="orth">    1.49    1.49</time>
   <time name="total">   30.02   30.03</time>
   <energy>
    <i name="alphaZ">   1046.49137667 </i>
    <i name="ewald">  61148.09542165 </i>
    <i name="hartreedc"> -84536.04522644 </i>
    <i name="XCdc">    648.63206650 </i>
    <i name="pawpsdc">  31361.84976942 </i>
    <i name="pawaedc"> -30827.39073352 </i>
    <i name="eentropy">     -0.04288352 </i>
    <i name="bandstr">  -2084.53745779 </i>
    <i name="atom">  22890.10489743 </i>
    <i name="e_fr_energy">   -352.84276961 </i>
    <i name="e_wo_entrp">   -352.79988608 </i>
    <i name="e_0_energy">   -352.82132785 </i>
   </energy>
  </scstep>
  <structure>
   <crystal>
    <varray name="basis" >
     <v>       6.36215693       0.00000000       0.00000000 </v>
     <v>       0.00000000       6.38448299       0.00000000 </v>
     <v>       0.00000000       0.00000000      22.02159841 </v>
    </varray>
    <i name="volume">    894.49712699 </i>
    <varray name="rec_basis" >
     <v>       0.15717940       0.00000000       0.00000000 </v>
     <v>       0.00000000       0.15662975       0.00000000 </v>
     <v>       0.00000000       0.00000000       0.04540996 </v>
    </varray>
   </crystal>
   <varray name="positions" >
    <v>       0.57042722       0.32475708       0.55072836 </v>
    <v>       0.58392645       0.64611760       0.56760769 </v>
    <v>       0.72388473       0.38668297       0.60906176 </v>
    <v>       0.44243239       0.38354974       0.61247439 </v>
    <v>       0.58002454       0.42789222       0.58583880 </v>
    <v>       0.08911000       0.35546000      -0.00000000 </v>
    <v>       0.58911000       0.35546000      -0.00000000 </v>
    <v>       0.33911000       0.04693000       0.05551000 </v>
    <v>       0.83911000       0.04693000       0.05551000 </v>
    <v>       0.33911000       0.66399000       0.05551000 </v>
    <v>       0.83911000       0.66399000       0.05551000 </v>
    <v>       0.08911000       0.35546000       0.11102000 </v>
    <v>       0.58911000       0.35546000       0.11102000 </v>
    <v>       0.08911000       0.85546000       0.14496000 </v>
    <v>       0.58911000       0.85546000       0.14496000 </v>
    <v>       0.33911000       0.16399000       0.20047000 </v>
    <v>       0.83911000       0.16399000       0.20047000 </v>
    <v>       0.33911000       0.54693000       0.20047000 </v>
    <v>       0.83911000       0.54693000       0.20047000 </v>
    <v>       0.08911000       0.85546000       0.25598000 </v>
    <v>       0.58911000       0.85546000       0.25598000 </v>
    <v>       0.08919474       0.35537704       0.28964594 </v>
    <v>       0.58916549       0.35537538       0.28954155 </v>
    <v>       0.33912195       0.04673107       0.34620327 </v>
    <v>       0.83917615       0.04674551       0.34615823 </v>
    <v>       0.33912947       0.66417364       0.34616669 </v>
    <v>       0.83917258       0.66415070       0.34612311 </v>
    <v>       0.08897183       0.35584959       0.40001225 </v>
    <v>       0.58949779       0.35550491       0.39942575 </v>
    <v>       0.08491596       0.85555341       0.43597416 </v>
    <v>       0.59344545       0.85548917       0.43596486 </v>
    <v>       0.33824507       0.16494994       0.49389073 </v>
    <v>       0.83987254       0.16566088       0.49462530 </v>
    <v>       0.84038509       0.54550568       0.49451777 </v>
    <v>       0.33772609       0.54610200       0.49376335 </v>
    <v>       0.08406075       0.85548904       0.54514608 </v>
    <v>       0.59384921       0.85488784       0.54550323 </v>
    <v>       0.84028018       0.85560623       0.49468977 </v>
    <v>       0.33911000       0.35546000       0.05551000 </v>
    <v>       0.83911000       0.35546000       0.05551000 </v>
    <v>       0.08911000       0.85546000       0.05551000 </v>
    <v>       0.58911000       0.85546000       0.05551000 </v>
    <v>       0.08911000       0.35546000       0.20047000 </v>
    <v>       0.58911000       0.35546000       0.20047000 </v>
    <v>       0.33911000       0.85546000       0.20047000 </v>
    <v>       0.83911000       0.85546000       0.20047000 </v>
    <v>       0.83851217       0.35543778       0.34494372 </v>
    <v>       0.33973745       0.35541051       0.34502120 </v>
    <v>       0.08903530       0.85543211       0.34651248 </v>
    <v>       0.58922970       0.85541818       0.34650723 </v>
    <v>       0.08854103       0.35536361       0.48829962 </v>
    <v>       0.59216061       0.36023252       0.48031250 </v>
    <v>       0.33837940       0.85556750       0.49165752 </v>
   </varray>
  </structure>
  <varray name="forces" >
   <v>      -0.51455783      -4.00397405       0.26250581 </v>
   <v>      -0.07603073      -2.32649569       1.28094569 </v>
   <v>       0.44676912       0.05766087       0.18951864 </v>
   <v>      -0.25863266       0.25003840      -0.03476334 </v>
   <v>       0.41171816       5.19950752       2.63428439 </v>
   <v>      -0.00237341      -0.00213767       0.59881922 </v>
   <v>       0.00071889      -0.00385997       0.61063959 </v>
   <v>       0.00399473       0.02502826      -0.64766648 </v>
   <v>       0.00283392       0.02308914      -0.64768834 </v>
   <v>       0.00211615      -0.01186814      -0.64969422 </v>
   <v>      -0.00223213      -0.01037385      -0.65012171 </v>
   <v>      -0.00554038       0.00225323       0.20752361 </v>
   <v>       0.00125902      -0.00455396       0.22990790 </v>
   <v>       0.00212388       0.00587021      -0.12275878 </v>
   <v>      -0.00760639      -0.00026381      -0.14226473 </v>
   <v>      -0.00234971       0.02347388      -0.02985435 </v>
   <v>       0.00426771       0.02420817      -0.03540186 </v>
   <v>       0.00003415      -0.02928607      -0.02966256 </v>
   <v>       0.00537562      -0.02938179      -0.03522950 </v>
   <v>      -0.00190233       0.01245879       0.57349681 </v>
   <v>       0.00761783       0.00546487       0.48235232 </v>
   <v>       0.03193731      -0.00180189       0.29489225 </v>
   <v>      -0.00281749      -0.00409714      -0.05688891 </v>
   <v>      -0.00143261      -0.02509959      -0.01605345 </v>
   <v>      -0.00956401      -0.02826174      -0.02284970 </v>
   <v>       0.00694128       0.00687795      -0.00734090 </v>
   <v>      -0.00855829       0.01028765      -0.01220076 </v>
   <v>      -0.02774426      -0.00120877       0.01681634 </v>
   <v>       0.12687355      -0.17485138      -4.64270291 </v>
   <v>       0.09948443       0.04302416      -0.03545141 </v>
   <v>      -0.00214867      -0.02049053       0.00040934 </v>
   <v>      -0.01279042       0.04513341      -0.80397436 </v>
   <v>       0.14477062      -0.00637009      -0.69544831 </v>
   <v>       0.56945218       0.56022976      -0.83499501 </v>
   <v>      -0.40377723       0.43052560      -1.00743559 </v>
   <v>       0.03799149      -0.00581174       0.03253205 </v>
   <v>      -0.25718678      -0.36718036       0.63942246 </v>
   <v>       0.31334161       0.15017342      -0.57907037 </v>
   <v>       0.00806808      -0.01254111      -0.81856062 </v>
   <v>      -0.00963478      -0.00897020      -0.81857406 </v>
   <v>      -0.00853395      -0.00404968       1.50402446 </v>
   <v>       0.00206630      -0.00188704       1.51146242 </v>
   <v>       0.01679125       0.00247932      -0.38556776 </v>
   <v>      -0.01020802       0.00504059      -0.37945953 </v>
   <v>       0.00094776       0.00275031      -0.24203463 </v>
   <v>      -0.00193106       0.00407578      -0.20510777 </v>
   <v>       0.09415576       0.01016903      -0.36197791 </v>
   <v>      -0.12960530      -0.00696284      -0.28878631 </v>
   <v>       0.01281522       0.00202727      -0.05701110 </v>
   <v>      -0.01283840       0.00093892      -0.06961033 </v>
   <v>       0.13488990      -0.07375229       0.13828256 </v>
   <v>      -0.44329364       0.14384690       4.52680376 </v>
   <v>      -0.27606546       0.11889800      -0.36843206 </v>
  </varray>
  <varray name="stress" >
   <v>      -7.99498544       0.36232618       0.21460077 </v>
   <v>       0.36232597      -8.59579748       4.40575714 </v>
   <v>       0.21460078       4.40575708      30.96154012 </v>
  </varray>
  <energy>
   <i name="e_fr_energy">   -363.05032556 </i>
   <i name="e_wo_entrp">   -363.02888380 </i>
   <i name="e_0_energy">     -0.04288352 </i>
  </energy>
  <time name="totalsc">  904.88  905.28</time>
 </calculation>
 <calculation>
  <scstep>
   <time name="dav">   52.95   52.95</time>
   <time name="total">   55.68   55.69</time>
   <energy>
    <i name="alphaZ">   1046.49137667 </i>
    <i name="ewald">  61118.74885098 </i>
    <i name="hartreedc"> -84508.79791275 </i>
    <i name="XCdc">    648.52811071 </i>
    <i name="pawpsdc">  31361.69447049 </i>
    <i name="pawaedc"> -30827.23551343 </i>
    <i name="eentropy">     -0.04236738 </i>
    <i name="bandstr">  -2082.83518036 </i>
    <i name="atom">  22890.10489743 </i>
    <i name="e_fr_energy">   -353.34326764 </i>
    <i name="e_wo_entrp">   -353.30090026 </i>
    <i name="e_0_energy">   -353.32208395 </i>
   </energy>
  </scstep>
  <scstep>
   <time name="diag">    9.46    9.46</time>
   <time name="diis">   32.36   32.37</time>
   <time name="orth">    1.50    1.50</time>
   <time name="total">   46.04   46.05</time>
   <energy>
    <i name="e_fr_energy">   -353.44519025 </i>
    <i name="e_wo_entrp">   -353.40452259 </i>
    <i name="e_0_energy">   -353.42485642 </i>
   </energy>
  </scstep>
  <scstep>
   <time name="diag">    9.45    9.45</time>
   <time name="diis">   33.01   33.01</time>
   <time name="orth">    1.50    1.50</time>
   <time name="total">   46.69   46.71</time>
   <energy>
    <i name="e_fr_energy">   -353.39109421 </i>
    <i name="e_wo_entrp">   -353.34671587 </i>
    <i name="e_0_energy">   -353.36890504 </i>
   </energy>
  </scstep>
  <scstep>
   <time name="diag">    9.45    9.45</time>
   <time name="diis">   32.28   32.28</time>
   <time name="orth">    1.50    1.50</time>
   <time name="total">   45.95   45.97</time>
   <energy>
    <i name="e_fr_energy">   -353.41432455 </i>
    <i name="e_wo_entrp">   -353.37529033 </i>
    <i name="e_0_energy">   -353.39480744 </i>
   </energy>
  </scstep>
  <scstep>
   <time name="diag">    9.45    9.45</time>
   <time name="diis">   32.26   32.27</time>
   <time name="orth">    1.50    1.50</time>
   <time name="total">   45.93   45.95</time>
   <energy>
    <i name="e_fr_energy">   -353.40759213 </i>
    <i name="e_wo_entrp">   -353.36428168 </i>
    <i name="e_0_energy">   -353.38593691 </i>
   </energy>
  </scstep>
  <scstep>
   <time name="diag">    9.45    9.45</time>
   <time name="diis">   32.24   32.24</time>
   <time name="orth">    1.49    1.49</time>
   <time name="total">   45.91   45.93</time>
   <energy>
    <i name="e_fr_energy">   -353.41017812 </i>
    <i name="e_wo_entrp">   -353.37053552 </i>
    <i name="e_0_energy">   -353.39035682 </i>
   </energy>
  </scstep>
  <scstep>
   <time name="diag">    9.45    9.45</time>
   <time name="diis">   32.28   32.28</time>
   <time name="orth">    1.50    1.50</time>
   <time name="total">   45.95   45.97</time>
   <energy>
    <i name="e_fr_energy">   -353.36788497 </i>
    <i name="e_wo_entrp">   -353.32356847 </i>
    <i name="e_0_energy">   -353.34572672 </i>
   </energy>
  </scstep>
  <scstep>
   <time name="diag">    9.45    9.45</time>
   <time name="diis">   31.79   31.80</time>
   <time name="orth">    1.50    1.50</time>
   <time name="total">   45.46   45.48</time>
   <energy>
    <i name="e_fr_energy">   -353.36513359 </i>
    <i name="e_wo_entrp">   -353.32194004 </i>
    <i name="e_0_energy">   -353.34353682 </i>
   </energy>
  </scstep>
  <scstep>
   <time name="diag">    9.44    9.44</time>
   <time name="diis">   27.96   27.96</time>
   <time name="orth">    1.49    1.50</time>
   <time name="total">   41.62   41.64</time>
   <energy>
    <i name="e_fr_energy">   -353.36576498 </i>
    <i name="e_wo_entrp">   -353.32242193 </i>
    <i name="e_0_energy">   -353.34409345 </i>
   </energy>
  </scstep>
  <scstep>
   <time name="diag">    9.44    9.44</time>
   <time name="diis">   20.64   20.65</time>
   <time name="orth">    1.49    1.49</time>
   <time name="total">   31.97   31.99</time>
   <energy>
    <i name="alphaZ">   1046.49137667 </i>
    <i name="ewald">  61118.74885098 </i>
    <i name="hartreedc"> -84508.86732374 </i>
    <i name="XCdc">    648.46363649 </i>
    <i name="pawpsdc">  31287.22944447 </i>
    <i name="pawaedc"> -30752.74317404 </i>
    <i name="eentropy">     -0.04340535 </i>
    <i name="bandstr">  -2082.75006390 </i>
    <i name="atom">  22890.10489743 </i>
    <i name="e_fr_energy">   -353.36576100 </i>
    <i name="e_wo_entrp">   -353.32235564 </i>
    <i name="e_0_energy">   -353.34405832 </i>
   </energy>
  </scstep>
  <structure>
   <crystal>
    <varray name="basis" >
     <v>       6.36215693       0.00000000       0.00000000 </v>
     <v>       0.00000000       6.38448299       0.00000000 </v>
     <v>       0.00000000       0.00000000      22.02159841 </v>
    </varray>
    <i name="volume">    894.49712699 </i>
    <varray name="rec_basis" >
     <v>       0.15717940       0.00000000       0.00000000 </v>
     <v>       0.00000000       0.15662975       0.00000000 </v>
     <v>       0.00000000       0.00000000       0.04540996 </v>
    </varray>
   </crystal>
   <varray name="positions" >
    <v>       0.56974210       0.31944460       0.55082934 </v>
    <v>       0.58391642       0.64898747       0.56755875 </v>
    <v>       0.72447958       0.38675947       0.60913466 </v>
    <v>       0.44208803       0.38388149       0.61246101 </v>
    <v>       0.58053162       0.43210308       0.58709669 </v>
    <v>       0.08911000       0.35546000      -0.00000000 </v>
    <v>       0.58911000       0.35546000      -0.00000000 </v>
    <v>       0.33911000       0.04693000       0.05551000 </v>
    <v>       0.83911000       0.04693000       0.05551000 </v>
    <v>       0.33911000       0.66399000       0.05551000 </v>
    <v>       0.83911000       0.66399000       0.05551000 </v>
    <v>       0.08911000       0.35546000       0.11102000 </v>
    <v>       0.58911000       0.35546000       0.11102000 </v>
    <v>       0.08911000       0.85546000       0.14496000 </v>
    <v>       0.58911000       0.85546000       0.14496000 </v>
    <v>       0.33911000       0.16399000       0.20047000 </v>
    <v>       0.83911000       0.16399000       0.20047000 </v>
    <v>       0.33911000       0.54693000       0.20047000 </v>
    <v>       0.83911000       0.54693000       0.20047000 </v>
    <v>       0.08911000       0.85546000       0.25598000 </v>
    <v>       0.58911000       0.85546000       0.25598000 </v>
    <v>       0.08923726       0.35537465       0.28975937 </v>
    <v>       0.58916174       0.35536994       0.28951966 </v>
    <v>       0.33912005       0.04669777       0.34619709 </v>
    <v>       0.83916341       0.04670801       0.34614944 </v>
    <v>       0.33913871       0.66418277       0.34616387 </v>
    <v>       0.83916119       0.66416435       0.34611841 </v>
    <v>       0.08893489       0.35584799       0.40001872 </v>
    <v>       0.58966672       0.35527292       0.39763987 </v>
    <v>       0.08504842       0.85561049       0.43596052 </v>
    <v>       0.59344259       0.85546198       0.43596502 </v>
    <v>       0.33822804       0.16500982       0.49358147 </v>
    <v>       0.84006529       0.16565243       0.49435779 </v>
    <v>       0.84114329       0.54624900       0.49419658 </v>
    <v>       0.33718848       0.54667323       0.49337583 </v>
    <v>       0.08411133       0.85548133       0.54515859 </v>
    <v>       0.59350678       0.85440067       0.54574919 </v>
    <v>       0.84069738       0.85580548       0.49446702 </v>
    <v>       0.33911000       0.35546000       0.05551000 </v>
    <v>       0.83911000       0.35546000       0.05551000 </v>
    <v>       0.08911000       0.85546000       0.05551000 </v>
    <v>       0.58911000       0.85546000       0.05551000 </v>
    <v>       0.08911000       0.35546000       0.20047000 </v>
    <v>       0.58911000       0.35546000       0.20047000 </v>
    <v>       0.33911000       0.85546000       0.20047000 </v>
    <v>       0.83911000       0.85546000       0.20047000 </v>
    <v>       0.83863753       0.35545127       0.34480448 </v>
    <v>       0.33956488       0.35540127       0.34491012 </v>
    <v>       0.08905236       0.85543480       0.34649055 </v>
    <v>       0.58921261       0.85541943       0.34648045 </v>
    <v>       0.08872063       0.35526575       0.48835281 </v>
    <v>       0.59157038       0.36042338       0.48205380 </v>
    <v>       0.33801183       0.85572526       0.49151580 </v>
   </varray>
  </structure>
  <varray name="forces" >
   <v>      -0.41547714      -2.85749832       2.10977047 </v>
   <v>      -0.05602376      -2.15975309       1.34745717 </v>
   <v>       0.58133387       0.04148324       0.34203260 </v>
   <v>      -0.34213843       0.23953434       0.11562456 </v>
   <v>       0.21940802       3.76431521       0.53424524 </v>
   <v>      -0.00302127      -0.00215803       0.59562897 </v>
   <v>       0.00103506      -0.00320726       0.60638750 </v>
   <v>       0.00557821       0.02694631      -0.65471451 </v>
   <v>       0.00255610       0.02476328      -0.65463388 </v>
   <v>       0.00220541      -0.01357329      -0.65590404 </v>
   <v>      -0.00338378      -0.01142396      -0.65664693 </v>
   <v>      -0.00647631       0.00234377       0.21882372 </v>
   <v>       0.00138423      -0.00302638       0.22360524 </v>
   <v>       0.00158121       0.00412722      -0.11927182 </v>
   <v>      -0.00825431      -0.00221044      -0.13581085 </v>
   <v>      -0.00017334       0.02358203      -0.02916746 </v>
   <v>       0.00215135       0.02447555      -0.03408700 </v>
   <v>       0.00181075      -0.02751848      -0.02915323 </v>
   <v>       0.00510418      -0.02831476      -0.03416452 </v>
   <v>      -0.00125849       0.01102722       0.56190194 </v>
   <v>       0.00875134       0.00605083       0.46974064 </v>
   <v>       0.02054470      -0.00114258       0.24092030 </v>
   <v>      -0.00947310      -0.00116082      -0.18895396 </v>
   <v>      -0.00938013      -0.01014168      -0.03314392 </v>
   <v>       0.00180696      -0.01217766      -0.04178368 </v>
   <v>      -0.00026864      -0.00247518      -0.02373531 </v>
   <v>      -0.00006465       0.00372800      -0.03037423 </v>
   <v>      -0.02662566      -0.00364087      -0.02408242 </v>
   <v>       0.09637629      -0.12740723      -1.51607492 </v>
   <v>       0.08353808       0.05530261      -0.09239030 </v>
   <v>      -0.00876327      -0.01195464      -0.03365902 </v>
   <v>      -0.08688058       0.00388740      -0.70982113 </v>
   <v>       0.16037662      -0.02952648      -0.60627708 </v>
   <v>       0.50565802       0.48898435      -0.75039401 </v>
   <v>      -0.38353703       0.38271336      -0.89757561 </v>
   <v>       0.05770619       0.01266364      -0.01267688 </v>
   <v>      -0.23323499      -0.36710517       0.51475020 </v>
   <v>       0.22660512       0.15092898      -0.45774362 </v>
   <v>       0.00495888      -0.01131533      -0.80829209 </v>
   <v>      -0.00612644      -0.00835830      -0.80889329 </v>
   <v>      -0.00914062      -0.00169103       1.50141409 </v>
[...]
    <i name="eentropy">     -0.03986238 </i>
    <i name="bandstr">  -2070.17330948 </i>
    <i name="atom">  22890.10489743 </i>
    <i name="e_fr_energy">   -354.91768924 </i>
    <i name="e_wo_entrp">   -354.87782686 </i>
    <i name="e_0_energy">   -354.89775805 </i>
   </energy>
  </scstep>
  <structure>
   <crystal>
    <varray name="basis" >
     <v>       6.36215693       0.00000000       0.00000000 </v>
     <v>       0.00000000       6.38448299       0.00000000 </v>
     <v>       0.00000000       0.00000000      22.02159841 </v>
    </varray>
    <i name="volume">    894.49712699 </i>
    <varray name="rec_basis" >
     <v>       0.15717940       0.00000000       0.00000000 </v>
     <v>       0.00000000       0.15662975       0.00000000 </v>
     <v>       0.00000000       0.00000000       0.04540996 </v>
    </varray>
   </crystal>
   <varray name="positions" >
    <v>       0.57107244       0.24934657       0.56795207 </v>
    <v>       0.58431838       0.63540757       0.56995551 </v>
    <v>       0.72758338       0.39624255       0.61380068 </v>
    <v>       0.43924395       0.40607573       0.61530157 </v>
    <v>       0.58252588       0.41655131       0.58756798 </v>
    <v>       0.08911000       0.35546000      -0.00000000 </v>
    <v>       0.58911000       0.35546000      -0.00000000 </v>
    <v>       0.33911000       0.04693000       0.05551000 </v>
    <v>       0.83911000       0.04693000       0.05551000 </v>
    <v>       0.33911000       0.66399000       0.05551000 </v>
    <v>       0.83911000       0.66399000       0.05551000 </v>
    <v>       0.08911000       0.35546000       0.11102000 </v>
    <v>       0.58911000       0.35546000       0.11102000 </v>
    <v>       0.08911000       0.85546000       0.14496000 </v>
    <v>       0.58911000       0.85546000       0.14496000 </v>
    <v>       0.33911000       0.16399000       0.20047000 </v>
    <v>       0.83911000       0.16399000       0.20047000 </v>
    <v>       0.33911000       0.54693000       0.20047000 </v>
    <v>       0.83911000       0.54693000       0.20047000 </v>
    <v>       0.08911000       0.85546000       0.25598000 </v>
    <v>       0.58911000       0.85546000       0.25598000 </v>
    <v>       0.08975049       0.35471164       0.28938958 </v>
    <v>       0.58935594       0.35518438       0.28897753 </v>
    <v>       0.33996155       0.04667030       0.34510708 </v>
    <v>       0.83905509       0.04667859       0.34484890 </v>
    <v>       0.33974038       0.66418610       0.34513397 </v>
    <v>       0.83928317       0.66420592       0.34494945 </v>
    <v>       0.08889323       0.35727515       0.39775372 </v>
    <v>       0.59035107       0.35307702       0.39910750 </v>
    <v>       0.08571097       0.86184670       0.43446151 </v>
    <v>       0.59300675       0.85527737       0.43536262 </v>
    <v>       0.33682707       0.16298590       0.49050216 </v>
    <v>       0.83864037       0.16280739       0.49196085 </v>
    <v>       0.84254722       0.54755920       0.48910899 </v>
    <v>       0.33318810       0.54677258       0.48790476 </v>
    <v>       0.08576232       0.85521219       0.54357080 </v>
    <v>       0.58904290       0.82297637       0.54866068 </v>
    <v>       0.84173649       0.85300833       0.49227662 </v>
    <v>       0.33911000       0.35546000       0.05551000 </v>
    <v>       0.83911000       0.35546000       0.05551000 </v>
    <v>       0.08911000       0.85546000       0.05551000 </v>
    <v>       0.58911000       0.85546000       0.05551000 </v>
    <v>       0.08911000       0.35546000       0.20047000 </v>
    <v>       0.58911000       0.35546000       0.20047000 </v>
    <v>       0.33911000       0.85546000       0.20047000 </v>
    <v>       0.83911000       0.85546000       0.20047000 </v>
    <v>       0.83787958       0.35541522       0.34392029 </v>
    <v>       0.34137219       0.35538119       0.34412818 </v>
    <v>       0.08937101       0.85577643       0.34565918 </v>
    <v>       0.58941572       0.85530110       0.34608993 </v>
    <v>       0.08658151       0.35325730       0.48535802 </v>
    <v>       0.58804909       0.35848823       0.48932645 </v>
    <v>       0.33670375       0.85289835       0.49060022 </v>
   </varray>
  </structure>
  <varray name="forces" >
   <v>       0.07325912      -0.11304050       0.44707806 </v>
   <v>       0.03336173      -0.00911302      -0.25478090 </v>
   <v>       0.01101786       0.29935932       0.06270311 </v>
   <v>       0.01035939       0.35157113      -0.02271467 </v>
   <v>       0.02609284      -0.09089444       0.00851234 </v>
   <v>      -0.00299587      -0.00434810       0.59195720 </v>
   <v>      -0.00085486      -0.00383785       0.60817059 </v>
   <v>       0.01140692       0.03647085      -0.64461792 </v>
   <v>      -0.00028908       0.03260988      -0.64586546 </v>
   <v>       0.00639873      -0.02658044      -0.64353451 </v>
   <v>      -0.00922983      -0.02205051      -0.64565132 </v>
   <v>      -0.01048575       0.00697843       0.20312357 </v>
   <v>      -0.00066680      -0.00365046       0.24439753 </v>
   <v>       0.00076992      -0.00580534      -0.12606802 </v>
   <v>      -0.00143377      -0.01141572      -0.14390222 </v>
   <v>      -0.00535311       0.02859521      -0.04154848 </v>
   <v>       0.01001332       0.03504836      -0.04126893 </v>
   <v>      -0.00454462      -0.03641418      -0.04075326 </v>
   <v>       0.01432688      -0.03690130      -0.04128116 </v>
   <v>       0.01686447      -0.01256097       0.34386810 </v>
   <v>       0.01854990       0.00270215       0.32120105 </v>
   <v>      -0.00784766       0.02506054       0.00168489 </v>
   <v>      -0.00345727       0.01553962       0.00251592 </v>
   <v>      -0.00301317       0.00384037       0.00937245 </v>
   <v>      -0.00682714       0.00617123       0.01052166 </v>
   <v>      -0.00245722       0.00767223       0.02810732 </v>
   <v>      -0.00741782       0.00506988       0.03085217 </v>
   <v>      -0.00879010      -0.01375843       0.05414173 </v>
   <v>      -0.01524121      -0.05258837       0.01679753 </v>
   <v>       0.00007625       0.05150154       0.00536278 </v>
   <v>      -0.02346451       0.00748349       0.01650715 </v>
   <v>      -0.00931023      -0.00932568       0.17968957 </v>
   <v>      -0.00876633      -0.01805491       0.13260262 </v>
   <v>       0.01040839      -0.03180174      -0.04156202 </v>
   <v>      -0.03513967      -0.04007412      -0.00286906 </v>
   <v>      -0.01297898      -0.05524913       0.04271777 </v>
   <v>      -0.01452294      -0.24279936       0.02690110 </v>
   <v>       0.00008791      -0.03713311      -0.02137713 </v>
   <v>      -0.01830698      -0.00962670      -0.82381215 </v>
   <v>       0.01970767      -0.00668238      -0.82791683 </v>
   <v>      -0.00942540       0.00495935       1.50150121 </v>
   <v>       0.00158314       0.00212377       1.49778651 </v>
   <v>       0.03118396      -0.00958494      -0.46762702 </v>
   <v>      -0.00674479       0.00534519      -0.55757259 </v>
   <v>       0.01867012       0.01332444      -0.26983471 </v>
   <v>      -0.03278753       0.01254525      -0.23662762 </v>
   <v>       0.00181684      -0.00173250       0.01870141 </v>
   <v>      -0.01620892      -0.00100744       0.01585272 </v>
   <v>      -0.00505294       0.01026335      -0.00151440 </v>
   <v>      -0.00374645       0.00863947       0.00676676 </v>
   <v>      -0.00756340      -0.04621454       0.01810411 </v>
   <v>      -0.00318539       0.01401232       0.08295064 </v>
   <v>      -0.01784559      -0.03464119       0.01225079 </v>
  </varray>
  <varray name="stress" >
   <v>     -12.44725076      -0.20655362       0.56545243 </v>
   <v>      -0.20655363     -14.57409500       1.52433282 </v>
   <v>       0.56545217       1.52433281       5.08188452 </v>
  </varray>
  <energy>
   <i name="e_fr_energy">   -365.10499164 </i>
   <i name="e_wo_entrp">   -365.08506045 </i>
   <i name="e_0_energy">     -0.03986238 </i>
  </energy>
  <time name="totalsc">  276.25  276.38</time>
 </calculation>
 <calculation>
  <scstep>
   <time name="dav">   54.29   54.30</time>
   <time name="total">   57.02   57.03</time>
   <energy>
    <i name="alphaZ">   1046.49137667 </i>
    <i name="ewald">  61460.15229741 </i>
    <i name="hartreedc"> -84863.99182764 </i>
    <i name="XCdc">    647.99817477 </i>
    <i name="pawpsdc">  31169.06215394 </i>
    <i name="pawaedc"> -30634.34294898 </i>
    <i name="eentropy">     -0.03991841 </i>
    <i name="bandstr">  -2070.35323995 </i>
    <i name="atom">  22890.10489743 </i>
    <i name="e_fr_energy">   -354.91903478 </i>
    <i name="e_wo_entrp">   -354.87911637 </i>
    <i name="e_0_energy">   -354.89907557 </i>
   </energy>
  </scstep>
  <scstep>
   <time name="diag">    9.41    9.41</time>
   <time name="diis">   23.65   23.66</time>
   <time name="orth">    1.49    1.49</time>
   <time name="total">   37.28   37.29</time>
   <energy>
    <i name="e_fr_energy">   -354.91927011 </i>
    <i name="e_wo_entrp">   -354.87939769 </i>
    <i name="e_0_energy">   -354.89933390 </i>
   </energy>
  </scstep>
  <scstep>
   <time name="diag">    9.41    9.41</time>
   <time name="diis">   18.92   18.92</time>
   <time name="orth">    1.49    1.49</time>
   <time name="total">   32.55   32.57</time>
   <energy>
    <i name="e_fr_energy">   -354.91908427 </i>
    <i name="e_wo_entrp">   -354.87915849 </i>
    <i name="e_0_energy">   -354.89912138 </i>
   </energy>
  </scstep>
  <scstep>
   <time name="diag">    9.41    9.41</time>
   <time name="diis">   18.39   18.39</time>
   <time name="orth">    1.48    1.49</time>
   <time name="total">   29.68   29.69</time>
   <energy>
    <i name="alphaZ">   1046.49137667 </i>
    <i name="ewald">  61460.15229741 </i>
    <i name="hartreedc"> -84864.12638516 </i>
    <i name="XCdc">    647.99883162 </i>
    <i name="pawpsdc">  31169.24741096 </i>
    <i name="pawaedc"> -30634.52859994 </i>
    <i name="eentropy">     -0.03991392 </i>
    <i name="bandstr">  -2070.21897357 </i>
    <i name="atom">  22890.10489743 </i>
    <i name="e_fr_energy">   -354.91905851 </i>
    <i name="e_wo_entrp">   -354.87914459 </i>
    <i name="e_0_energy">   -354.89910155 </i>
   </energy>
  </scstep>
  <structure>
   <crystal>
    <varray name="basis" >
     <v>       6.36215693       0.00000000       0.00000000 </v>
     <v>       0.00000000       6.38448299       0.00000000 </v>
     <v>       0.00000000       0.00000000      22.02159841 </v>
    </varray>
    <i name="volume">    894.49712699 </i>
    <varray name="rec_basis" >
     <v>       0.15717940       0.00000000       0.00000000 </v>
     <v>       0.00000000       0.15662975       0.00000000 </v>
     <v>       0.00000000       0.00000000       0.04540996 </v>
    </varray>
   </crystal>
   <varray name="positions" >
    <v>       0.57109318       0.24940609       0.56799033 </v>
    <v>       0.58432380       0.63549925       0.56993191 </v>
    <v>       0.72756612       0.39637745       0.61379473 </v>
    <v>       0.43927963       0.40622332       0.61529194 </v>
    <v>       0.58253902       0.41666281       0.58756512 </v>
    <v>       0.08911000       0.35546000      -0.00000000 </v>
    <v>       0.58911000       0.35546000      -0.00000000 </v>
    <v>       0.33911000       0.04693000       0.05551000 </v>
    <v>       0.83911000       0.04693000       0.05551000 </v>
    <v>       0.33911000       0.66399000       0.05551000 </v>
    <v>       0.83911000       0.66399000       0.05551000 </v>
    <v>       0.08911000       0.35546000       0.11102000 </v>
    <v>       0.58911000       0.35546000       0.11102000 </v>
    <v>       0.08911000       0.85546000       0.14496000 </v>
    <v>       0.58911000       0.85546000       0.14496000 </v>
    <v>       0.33911000       0.16399000       0.20047000 </v>
    <v>       0.83911000       0.16399000       0.20047000 </v>
    <v>       0.33911000       0.54693000       0.20047000 </v>
    <v>       0.83911000       0.54693000       0.20047000 </v>
    <v>       0.08911000       0.85546000       0.25598000 </v>
    <v>       0.58911000       0.85546000       0.25598000 </v>
    <v>       0.08974373       0.35472613       0.28938076 </v>
    <v>       0.58936074       0.35519510       0.28897074 </v>
    <v>       0.33996938       0.04666361       0.34510331 </v>
    <v>       0.83904558       0.04667872       0.34484678 </v>
    <v>       0.33975199       0.66419952       0.34513371 </v>
    <v>       0.83927413       0.66421618       0.34495149 </v>
    <v>       0.08887908       0.35724831       0.39777641 </v>
    <v>       0.59034916       0.35306022       0.39909912 </v>
    <v>       0.08570274       0.86188111       0.43446647 </v>
    <v>       0.59301098       0.85529366       0.43536291 </v>
    <v>       0.33678456       0.16302198       0.49052216 </v>
    <v>       0.83868255       0.16281861       0.49197139 </v>
    <v>       0.84259154       0.54757341       0.48910142 </v>
    <v>       0.33313310       0.54675662       0.48790200 </v>
    <v>       0.08573775       0.85521643       0.54357298 </v>
    <v>       0.58904139       0.82290841       0.54866343 </v>
    <v>       0.84175025       0.85301153       0.49227261 </v>
    <v>       0.33911000       0.35546000       0.05551000 </v>
    <v>       0.83911000       0.35546000       0.05551000 </v>
    <v>       0.08911000       0.85546000       0.05551000 </v>
    <v>       0.58911000       0.85546000       0.05551000 </v>
    <v>       0.08911000       0.35546000       0.20047000 </v>
    <v>       0.58911000       0.35546000       0.20047000 </v>
    <v>       0.33911000       0.85546000       0.20047000 </v>
    <v>       0.83911000       0.85546000       0.20047000 </v>
    <v>       0.83789843       0.35540745       0.34391986 </v>
    <v>       0.34134628       0.35537391       0.34412791 </v>
    <v>       0.08936586       0.85578963       0.34565686 </v>
    <v>       0.58941760       0.85531405       0.34608781 </v>
    <v>       0.08657944       0.35324637       0.48534737 </v>
    <v>       0.58805118       0.35853075       0.48934763 </v>
    <v>       0.33670113       0.85289828       0.49059550 </v>
   </varray>
  </structure>
  <varray name="forces" >
   <v>       0.07283198      -0.11539610       0.44523278 </v>
   <v>       0.03344253       0.00032195      -0.25618248 </v>
   <v>       0.01858440       0.30067591       0.06680350 </v>
   <v>       0.00317308       0.35309120      -0.01863838 </v>
   <v>       0.02602360      -0.10108353       0.00081776 </v>
   <v>      -0.00304943      -0.00428519       0.59120980 </v>
   <v>      -0.00088178      -0.00380095       0.60759388 </v>
   <v>       0.01130001       0.03550261      -0.64462694 </v>
   <v>      -0.00025906       0.03166885      -0.64581921 </v>
   <v>       0.00629985      -0.02548940      -0.64354415 </v>
   <v>      -0.00922312      -0.02100501      -0.64560183 </v>
   <v>      -0.01045520       0.00697612       0.20016157 </v>
   <v>      -0.00076803      -0.00363421       0.24190089 </v>
   <v>       0.00062798      -0.00572331      -0.12757857 </v>
   <v>      -0.00137146      -0.01131241      -0.14579710 </v>
   <v>      -0.00486226       0.02614322      -0.04115645 </v>
   <v>       0.00942524       0.03241387      -0.04104362 </v>
   <v>      -0.00404047      -0.03386731      -0.04045739 </v>
   <v>       0.01373416      -0.03411477      -0.04114317 </v>
   <v>       0.01673891      -0.01245778       0.34392894 </v>
   <v>       0.01867679       0.00283872       0.32019261 </v>
   <v>      -0.00653080       0.02416132       0.01318322 </v>
   <v>      -0.00479487       0.01499176       0.00949469 </v>
   <v>      -0.00571390       0.00635382       0.01037678 </v>
   <v>      -0.00472930       0.00650869       0.01037120 </v>
   <v>      -0.00563816       0.00519192       0.02885064 </v>
   <v>      -0.00524477       0.00397911       0.03069708 </v>
   <v>      -0.00660743      -0.01366485       0.02869383 </v>
   <v>      -0.01653083      -0.05285496       0.02896417 </v>
   <v>       0.00310533       0.05077550      -0.00055886 </v>
   <v>      -0.02568992       0.00744762       0.01601849 </v>
   <v>       0.00109455      -0.01482252       0.17858135 </v>
   <v>      -0.01792350      -0.01664110       0.13300188 </v>
   <v>       0.00209542      -0.03272776      -0.04088083 </v>
   <v>      -0.02452699      -0.03348078      -0.00161168 </v>
   <v>      -0.00794975      -0.05521487       0.04054573 </v>
   <v>      -0.01565725      -0.23821462       0.02470225 </v>
   <v>      -0.00268558      -0.03749829      -0.01672055 </v>
   <v>      -0.01771936      -0.00958645      -0.82600934 </v>
   <v>       0.01902778      -0.00662251      -0.83022784 </v>
   <v>      -0.00944266       0.00500827       1.50297703 </v>
   <v>       0.00148367       0.00215124       1.49883675 </v>
   <v>       0.03076814      -0.00929312      -0.47135743 </v>
   <v>      -0.00653809       0.00558732      -0.56066064 </v>
   <v>       0.01845173       0.01328815      -0.27151756 </v>
   <v>      -0.03271821       0.01247323      -0.23840749 </v>
   <v>      -0.00925613       0.00239855       0.01980624 </v>
   <v>      -0.00512592       0.00269449       0.01645870 </v>
   <v>      -0.00299067       0.00736024       0.00057696 </v>
   <v>      -0.00545702       0.00552832       0.00803217 </v>
   <v>      -0.00720803      -0.04491119       0.04359535 </v>
   <v>      -0.00483544       0.00719156       0.06765610 </v>
   <v>      -0.02045980      -0.03502056       0.02027913 </v>
  </varray>
  <varray name="stress" >
   <v>     -12.41483651      -0.20522767       0.57730388 </v>
   <v>      -0.20522747     -14.47994440       1.51508576 </v>
   <v>       0.57730369       1.51508583       5.17145588 </v>
  </varray>
  <energy>
   <i name="e_fr_energy">   -365.10628714 </i>
   <i name="e_wo_entrp">   -365.08633019 </i>
   <i name="e_0_energy">     -0.03991392 </i>
  </energy>
  <time name="totalsc">  221.52  221.63</time>
 </calculation>
 <calculation>
  <scstep>
   <time name="dav">   52.61   52.61</time>
   <time name="total">   55.36   55.36</time>
   <energy>
    <i name="alphaZ">   1046.49137667 </i>
    <i name="ewald">  61457.51817372 </i>
    <i name="hartreedc"> -84861.49748225 </i>
    <i name="XCdc">    647.99806823 </i>
    <i name="pawpsdc">  31169.24643328 </i>
    <i name="pawaedc"> -30634.52758374 </i>
    <i name="eentropy">     -0.03990051 </i>
    <i name="bandstr">  -2070.21505582 </i>
    <i name="atom">  22890.10489743 </i>
    <i name="e_fr_energy">   -354.92107300 </i>
    <i name="e_wo_entrp">   -354.88117249 </i>
    <i name="e_0_energy">   -354.90112274 </i>
   </energy>
  </scstep>
  <scstep>
   <time name="diag">    9.41    9.41</time>
   <time name="diis">   20.44   20.44</time>
   <time name="orth">    1.49    1.49</time>
   <time name="total">   34.08   34.08</time>
   <energy>
    <i name="e_fr_energy">   -354.92119262 </i>
    <i name="e_wo_entrp">   -354.88129441 </i>
    <i name="e_0_energy">   -354.90124352 </i>
   </energy>
  </scstep>
  <scstep>
   <time name="diag">    9.41    9.41</time>
   <time name="diis">   18.82   18.83</time>
   <time name="orth">    1.49    1.49</time>
   <time name="total">   30.11   30.13</time>
   <energy>
    <i name="alphaZ">   1046.49137667 </i>
    <i name="ewald">  61457.51817372 </i>
    <i name="hartreedc"> -84861.52410676 </i>
    <i name="XCdc">    647.99821055 </i>
    <i name="pawpsdc">  31169.17942208 </i>
    <i name="pawaedc"> -30634.46007224 </i>
    <i name="eentropy">     -0.03995888 </i>
    <i name="bandstr">  -2070.18910523 </i>
    <i name="atom">  22890.10489743 </i>
    <i name="e_fr_energy">   -354.92116266 </i>
    <i name="e_wo_entrp">   -354.88120378 </i>
    <i name="e_0_energy">   -354.90118322 </i>
   </energy>
  </scstep>
