                                        
           1
     6.362157    0.000000    0.000000
     0.000000    6.384483    0.000000
     0.000000    0.000000   22.021598
   H    C    O    Ru   Ir
   4   1  32   1  15
Direct configuration=     1
   0.57352149  0.33289075  0.54234754
   0.58396847  0.64308521  0.56751847
   0.72372245  0.38685617  0.60921924
   0.44281543  0.38375135  0.61274562
   0.57885902  0.42370707  0.58451996
   0.08911000  0.35546000  1.00000000
   0.58911000  0.35546000  1.00000000
   0.33911000  1.04693000  1.05551000
   0.83911000  1.04693000  1.05551000
   0.33911000  0.66399000  1.05551000
   0.83911000  0.66399000  1.05551000
   0.08911000  0.35546000  0.11102000
   0.58911000  0.35546000  0.11102000
   0.08911000  0.85546000  0.14496000
   0.58911000  0.85546000  0.14496000
   0.33911000  0.16399000  0.20047000
   0.83911000  0.16399000  0.20047000
   0.33911000  0.54693000  0.20047000
   0.83911000  0.54693000  0.20047000
   0.08911000  0.85546000  0.25598000
   0.58911000  0.85546000  0.25598000
   0.08915000  0.35538000  0.28954000
   0.58916000  0.35538000  0.28954000
   0.33915000  1.04669000  0.34622000
   0.83915000  1.04671000  0.34618000
   0.33915000  0.66422000  0.34618000
   0.83914000  0.66420000  0.34614000
   0.08898000  0.35582000  0.40003000
   0.58936000  0.35583000  0.40003000
   0.08479000  0.85550000  0.43592000
   0.59350000  0.85550000  0.43594000
   0.33914000  0.16552000  0.49407000
   0.83916000  0.16626000  0.49473000
   0.83915000  0.54464000  0.49474000
   0.33915000  0.54536000  0.49408000
   1.08395000  0.85548000  0.54509000
   0.59433000  0.85551000  0.54506000
   0.83916000  0.85544000  0.49512000
   0.33911000  0.35546000  1.05551000
   0.83911000  0.35546000  1.05551000
   0.08911000  0.85546000  1.05551000
   0.58911000  0.85546000  1.05551000
   0.08911000  0.35546000  0.20047000
   0.58911000  0.35546000  0.20047000
   0.33911000  0.85546000  0.20047000
   0.83911000  0.85546000  0.20047000
   0.83916000  0.35543000  0.34496000
   0.33916000  0.35544000  0.34502000
   0.08901000  0.85544000  0.34649000
   0.58926000  0.85544000  0.34650000
   0.08857000  0.35542000  0.48833000
   0.58970000  0.35542000  0.48833000
   0.33913000  0.85543000  0.49196000
Direct configuration=     2
   0.57042722  0.32475708  0.55072836
   0.58392645  0.64611760  0.56760769
   0.72388473  0.38668297  0.60906176
   0.44243239  0.38354974  0.61247439
   0.58002454  0.42789222  0.58583880
   0.08911000  0.35546000  1.00000000
   0.58911000  0.35546000  1.00000000
   0.33911000  1.04693000  1.05551000
   0.83911000  1.04693000  1.05551000
   0.33911000  0.66399000  1.05551000
   0.83911000  0.66399000  1.05551000
   0.08911000  0.35546000  0.11102000
   0.58911000  0.35546000  0.11102000
   0.08911000  0.85546000  0.14496000
   0.58911000  0.85546000  0.14496000
   0.33911000  0.16399000  0.20047000
   0.83911000  0.16399000  0.20047000
   0.33911000  0.54693000  0.20047000
   0.83911000  0.54693000  0.20047000
   0.08911000  0.85546000  0.25598000
   0.58911000  0.85546000  0.25598000
   0.08919474  0.35537704  0.28964594
   0.58916549  0.35537538  0.28954155
   0.33912195  1.04673107  0.34620327
   0.83917615  1.04674551  0.34615823
   0.33912947  0.66417364  0.34616669
   0.83917258  0.66415070  0.34612311
   0.08897183  0.35584959  0.40001225
   0.58949779  0.35550491  0.39942575
   0.08491596  0.85555341  0.43597416
   0.59344545  0.85548917  0.43596486
   0.33824507  0.16494994  0.49389073
   0.83987254  0.16566088  0.49462530
   0.84038509  0.54550568  0.49451777
   0.33772609  0.54610200  0.49376335
   1.08406075  0.85548904  0.54514608
   0.59384921  0.85488784  0.54550323
   0.84028018  0.85560623  0.49468977
   0.33911000  0.35546000  1.05551000
   0.83911000  0.35546000  1.05551000
   0.08911000  0.85546000  1.05551000
   0.58911000  0.85546000  1.05551000
   0.08911000  0.35546000  0.20047000
   0.58911000  0.35546000  0.20047000
   0.33911000  0.85546000  0.20047000
   0.83911000  0.85546000  0.20047000
   0.83851217  0.35543778  0.34494372
   0.33973745  0.35541051  0.34502120
   0.08903530  0.85543211  0.34651248
   0.58922970  0.85541818  0.34650723
   0.08854103  0.35536361  0.48829962
   0.59216061  0.36023252  0.48031250
   0.33837940  0.85556750  0.49165752
Direct configuration=     3
   0.56974210  0.31944460  0.55082934
   0.58391642  0.64898747  0.56755875
   0.72447958  0.38675947  0.60913466
   0.44208803  0.38388149  0.61246101
   0.58053162  0.43210308  0.58709669
   0.08911000  0.35546000  1.00000000
   0.58911000  0.35546000  1.00000000
   0.33911000  1.04693000  1.05551000
   0.83911000  1.04693000  1.05551000
   0.33911000  0.66399000  1.05551000
   0.83911000  0.66399000  1.05551000
   0.08911000  0.35546000  0.11102000
   0.58911000  0.35546000  0.11102000
   0.08911000  0.85546000  0.14496000
   0.58911000  0.85546000  0.14496000
   0.33911000  0.16399000  0.20047000
   0.83911000  0.16399000  0.20047000
   0.33911000  0.54693000  0.20047000
   0.83911000  0.54693000  0.20047000
   0.08911000  0.85546000  0.25598000
   0.58911000  0.85546000  0.25598000
   0.08923726  0.35537465  0.28975937
   0.58916174  0.35536994  0.28951966
   0.33912005  1.04669777  0.34619709
   0.83916341  1.04670801  0.34614944
   0.33913871  0.66418277  0.34616387
   0.83916119  0.66416435  0.34611841
   0.08893489  0.35584799  0.40001872
   0.58966672  0.35527292  0.39763987
   0.08504842  0.85561049  0.43596052
   0.59344259  0.85546198  0.43596502
   0.33822804  0.16500982  0.49358147
   0.84006529  0.16565243  0.49435779
   0.84114329  0.54624900  0.49419658
   0.33718848  0.54667323  0.49337583
   1.08411133  0.85548133  0.54515859
   0.59350678  0.85440067  0.54574919
   0.84069738  0.85580548  0.49446702
   0.33911000  0.35546000  1.05551000
   0.83911000  0.35546000  1.05551000
   0.08911000  0.85546000  1.05551000
   0.58911000  0.85546000  1.05551000
   0.08911000  0.35546000  0.20047000
   0.58911000  0.35546000  0.20047000
   0.33911000  0.85546000  0.20047000
   0.83911000  0.85546000  0.20047000
   0.83863753  0.35545127  0.34480448
   0.33956488  0.35540127  0.34491012
   0.08905236  0.85543480  0.34649055
   0.58921261  0.85541943  0.34648045
   0.08872063  0.35526575  0.48835281
   0.59157038  0.36042338  0.48205380
   0.33801183  0.85572526  0.49151580
Direct configuration=     4
   0.56848251  0.31080686  0.55266989
   0.58390721  0.65349597  0.56772567
   0.72623905  0.38688487  0.60943351
   0.44105256  0.38460464  0.61256173
   0.58111326  0.43754124  0.58811828
   0.08911000  0.35546000  1.00000000
   0.58911000  0.35546000  1.00000000
   0.33911000  1.04693000  1.05551000
   0.83911000  1.04693000  1.05551000
   0.33911000  0.66399000  1.05551000
   0.83911000  0.66399000  1.05551000
   0.08911000  0.35546000  0.11102000
   0.58911000  0.35546000  0.11102000
   0.08911000  0.85546000  0.14496000
   0.58911000  0.85546000  0.14496000
   0.33911000  0.16399000  0.20047000
   0.83911000  0.16399000  0.20047000
   0.33911000  0.54693000  0.20047000
   0.83911000  0.54693000  0.20047000
   0.08911000  0.85546000  0.25598000
   0.58911000  0.85546000  0.25598000
   0.08929962  0.35537120  0.28997038
   0.58913311  0.35536641  0.28935472
   0.33909172  1.04666700  0.34616814
   0.83916877  1.04667108  0.34611294
   0.33913798  0.66417540  0.34614315
   0.83916090  0.66417567  0.34609189
   0.08885423  0.35583702  0.39999777
   0.58995898  0.35488783  0.39630335
   0.08530164  0.85577729  0.43587985
   0.59341611  0.85542580  0.43593567
   0.33796567  0.16502200  0.49295999
   0.84055092  0.16556355  0.49382694
   0.84267567  0.54772577  0.49353963
   0.33602649  0.54782897  0.49258999
   1.08428592  0.85551935  0.54514764
   0.59280003  0.85329255  0.54620005
   0.84138473  0.85626105  0.49406606
   0.33911000  0.35546000  1.05551000
   0.83911000  0.35546000  1.05551000
   0.08911000  0.85546000  1.05551000
   0.58911000  0.85546000  1.05551000
   0.08911000  0.35546000  0.20047000
   0.58911000  0.35546000  0.20047000
   0.33911000  0.85546000  0.20047000
   0.83911000  0.85546000  0.20047000
   0.83907177  0.35546536  0.34436256
   0.33918172  0.35538250  0.34451958
   0.08907239  0.85543278  0.34647835
   0.58918723  0.85540843  0.34647114
   0.08889613  0.35521409  0.48839455
   0.59072696  0.36135452  0.48336116
   0.33745131  0.85610632  0.49130914
Direct configuration=     5
   0.56735438  0.30208225  0.55508734
   0.58391357  0.65718265  0.56813580
   0.72780118  0.38746531  0.60980403
   0.44021643  0.38594138  0.61273158
   0.58171361  0.44135266  0.58864515
   0.08911000  0.35546000  1.00000000
   0.58911000  0.35546000  1.00000000
   0.33911000  1.04693000  1.05551000
   0.83911000  1.04693000  1.05551000
   0.33911000  0.66399000  1.05551000
   0.83911000  0.66399000  1.05551000
   0.08911000  0.35546000  0.11102000
   0.58911000  0.35546000  0.11102000
   0.08911000  0.85546000  0.14496000
   0.58911000  0.85546000  0.14496000
   0.33911000  0.16399000  0.20047000
   0.83911000  0.16399000  0.20047000
   0.33911000  0.54693000  0.20047000
   0.83911000  0.54693000  0.20047000
   0.08911000  0.85546000  0.25598000
   0.58911000  0.85546000  0.25598000
   0.08935761  0.35536205  0.29004918
   0.58908850  0.35536749  0.28904678
   0.33904877  1.04665742  0.34611388
   0.83920795  1.04665477  0.34604791
   0.33912196  0.66414034  0.34610057
   0.83918423  0.66417159  0.34604144
   0.08877436  0.35580783  0.39988467
   0.59018539  0.35451625  0.39589616
   0.08553831  0.85607168  0.43574880
   0.59339334  0.85541784  0.43589634
   0.33764404  0.16510039  0.49227451
   0.84091119  0.16553439  0.49323946
   0.84405635  0.54923764  0.49278841
   0.33484783  0.54900835  0.49171431
   1.08460988  0.85564366  0.54515183
   0.59197092  0.85185366  0.54667416
   0.84191587  0.85679795  0.49355766
   0.33911000  0.35546000  1.05551000
   0.83911000  0.35546000  1.05551000
   0.08911000  0.85546000  1.05551000
   0.58911000  0.85546000  1.05551000
   0.08911000  0.35546000  0.20047000
   0.58911000  0.35546000  0.20047000
   0.33911000  0.85546000  0.20047000
   0.83911000  0.85546000  0.20047000
   0.83936738  0.35546388  0.34391391
   0.33904009  0.35536462  0.34411624
   0.08908479  0.85542632  0.34645937
   0.58916740  0.85539309  0.34648239
   0.08887649  0.35538273  0.48832636
   0.59016921  0.36241953  0.48440148
   0.33706108  0.85655684  0.49113148
Direct configuration=     6
   0.56628842  0.29175839  0.55814807
   0.58395090  0.66048366  0.56886562
   0.72915966  0.38890533  0.61030364
   0.43969300  0.38849180  0.61299854
   0.58245733  0.44412900  0.58891036
   0.08911000  0.35546000  1.00000000
   0.58911000  0.35546000  1.00000000
   0.33911000  1.04693000  1.05551000
   0.83911000  1.04693000  1.05551000
   0.33911000  0.66399000  1.05551000
   0.83911000  0.66399000  1.05551000
   0.08911000  0.35546000  0.11102000
   0.58911000  0.35546000  0.11102000
   0.08911000  0.85546000  0.14496000
   0.58911000  0.85546000  0.14496000
   0.33911000  0.16399000  0.20047000
   0.83911000  0.16399000  0.20047000
   0.33911000  0.54693000  0.20047000
   0.83911000  0.54693000  0.20047000
   0.08911000  0.85546000  0.25598000
   0.58911000  0.85546000  0.25598000
   0.08944540  0.35534133  0.28994482
   0.58904807  0.35537559  0.28861162
   0.33900929  1.04665585  0.34601431
   0.83927616  1.04665703  0.34593055
   0.33911156  0.66408320  0.34602116
   0.83922704  0.66414417  0.34594656
   0.08870109  0.35573824  0.39962600
   0.59039897  0.35411772  0.39602345
   0.08581303  0.85662270  0.43552761
   0.59337350  0.85546174  0.43582481
   0.33731165  0.16536278  0.49141564
   0.84107172  0.16563342  0.49250148
   0.84532542  0.55097887  0.49180508
   0.33360972  0.55035473  0.49060240
   1.08511552  0.85591843  0.54511864
   0.59090195  0.84977207  0.54721865
   0.84241599  0.85748154  0.49292950
   0.33911000  0.35546000  1.05551000
   0.83911000  0.35546000  1.05551000
   0.08911000  0.85546000  1.05551000
   0.58911000  0.85546000  1.05551000
   0.08911000  0.35546000  0.20047000
   0.58911000  0.35546000  0.20047000
   0.33911000  0.85546000  0.20047000
   0.83911000  0.85546000  0.20047000
   0.83928359  0.35546286  0.34352811
   0.33931727  0.35535946  0.34377029
   0.08909856  0.85541125  0.34641384
   0.58914119  0.85537151  0.34650522
   0.08867266  0.35586051  0.48806553
   0.58970674  0.36338606  0.48585860
   0.33671663  0.85712732  0.49099834
Direct configuration=     7
   0.56593791  0.28565907  0.56012588
   0.58400185  0.66132017  0.56950781
   0.72953617  0.39055614  0.61067238
   0.43981819  0.39104647  0.61323219
   0.58288490  0.44412993  0.58878018
   0.08911000  0.35546000  1.00000000
   0.58911000  0.35546000  1.00000000
   0.33911000  1.04693000  1.05551000
   0.83911000  1.04693000  1.05551000
   0.33911000  0.66399000  1.05551000
   0.83911000  0.66399000  1.05551000
   0.08911000  0.35546000  0.11102000
   0.58911000  0.35546000  0.11102000
   0.08911000  0.85546000  0.14496000
   0.58911000  0.85546000  0.14496000
   0.33911000  0.16399000  0.20047000
   0.83911000  0.16399000  0.20047000
   0.33911000  0.54693000  0.20047000
   0.83911000  0.54693000  0.20047000
   0.08911000  0.85546000  0.25598000
   0.58911000  0.85546000  0.25598000
   0.08951710  0.35531745  0.28973897
   0.58904090  0.35538510  0.28838475
   0.33903002  1.04665874  0.34592038
   0.83929851  1.04667482  0.34581826
   0.33914599  0.66404283  0.34594633
   0.83923383  0.66410541  0.34585590
   0.08868612  0.35564791  0.39935171
   0.59048316  0.35392358  0.39654607
   0.08597210  0.85718722  0.43534542
   0.59334940  0.85555641  0.43575870
   0.33719330  0.16570330  0.49090040
   0.84090935  0.16588037  0.49206528
   0.84565540  0.55187291  0.49115997
   0.33310951  0.55106542  0.48990144
   1.08545724  0.85621988  0.54501947
   0.59024770  0.84818808  0.54751230
   0.84262093  0.85791426  0.49260628
   0.33911000  0.35546000  1.05551000
   0.83911000  0.35546000  1.05551000
   0.08911000  0.85546000  1.05551000
   0.58911000  0.85546000  1.05551000
   0.08911000  0.35546000  0.20047000
   0.58911000  0.35546000  0.20047000
   0.33911000  0.85546000  0.20047000
   0.83911000  0.85546000  0.20047000
   0.83893454  0.35547075  0.34345619
   0.33976608  0.35537668  0.34370564
   0.08911497  0.85539634  0.34634146
   0.58912508  0.85535645  0.34650366
   0.08840716  0.35639750  0.48769849
   0.58954399  0.36360917  0.48691438
   0.33659876  0.85748498  0.49097455
Direct configuration=     8
   0.56573293  0.27643781  0.56320282
   0.58410824  0.66162269  0.57058526
   0.72980442  0.39388108  0.61132675
   0.44030194  0.39601999  0.61369126
   0.58353044  0.44290676  0.58835041
   0.08911000  0.35546000  1.00000000
   0.58911000  0.35546000  1.00000000
   0.33911000  1.04693000  1.05551000
   0.83911000  1.04693000  1.05551000
   0.33911000  0.66399000  1.05551000
   0.83911000  0.66399000  1.05551000
   0.08911000  0.35546000  0.11102000
   0.58911000  0.35546000  0.11102000
   0.08911000  0.85546000  0.14496000
   0.58911000  0.85546000  0.14496000
   0.33911000  0.16399000  0.20047000
   0.83911000  0.16399000  0.20047000
   0.33911000  0.54693000  0.20047000
   0.83911000  0.54693000  0.20047000
   0.08911000  0.85546000  0.25598000
   0.58911000  0.85546000  0.25598000
   0.08963103  0.35527252  0.28939468
   0.58904951  0.35540812  0.28819341
   0.33913783  1.04666580  0.34574460
   0.83927178  1.04669989  0.34560944
   0.33926270  0.66398621  0.34580949
   0.83919812  0.66404302  0.34568986
   0.08868010  0.35544390  0.39882605
   0.59057899  0.35365192  0.39764735
   0.08617360  0.85832804  0.43503830
   0.59329718  0.85579884  0.43565166
   0.33709703  0.16644041  0.49018544
   0.84044551  0.16642844  0.49146872
   0.84566963  0.55299889  0.49017107
   0.33265659  0.55193137  0.48885375
   1.08593452  0.85682539  0.54478863
   0.58934539  0.84545170  0.54794090
   0.84280980  0.85853643  0.49218099
   0.33911000  0.35546000  1.05551000
   0.83911000  0.35546000  1.05551000
   0.08911000  0.85546000  1.05551000
   0.58911000  0.85546000  1.05551000
   0.08911000  0.35546000  0.20047000
   0.58911000  0.35546000  0.20047000
   0.33911000  0.85546000  0.20047000
   0.83911000  0.85546000  0.20047000
   0.83832334  0.35549819  0.34348177
   0.34051676  0.35542182  0.34373211
   0.08915451  0.85538238  0.34617763
   0.58911146  0.85533534  0.34647045
   0.08793770  0.35739535  0.48691648
   0.58928021  0.36367149  0.48859113
   0.33651448  0.85800672  0.49092732
Direct configuration=     9
   0.56597109  0.27256000  0.56461203
   0.58417655  0.66088258  0.57109057
   0.72968669  0.39610512  0.61169486
   0.44074818  0.39923819  0.61398048
   0.58378240  0.44135968  0.58799887
   0.08911000  0.35546000  1.00000000
   0.58911000  0.35546000  1.00000000
   0.33911000  1.04693000  1.05551000
   0.83911000  1.04693000  1.05551000
   0.33911000  0.66399000  1.05551000
   0.83911000  0.66399000  1.05551000
   0.08911000  0.35546000  0.11102000
   0.58911000  0.35546000  0.11102000
   0.08911000  0.85546000  0.14496000
   0.58911000  0.85546000  0.14496000
   0.33911000  0.16399000  0.20047000
   0.83911000  0.16399000  0.20047000
   0.33911000  0.54693000  0.20047000
   0.83911000  0.54693000  0.20047000
   0.08911000  0.85546000  0.25598000
   0.58911000  0.85546000  0.25598000
   0.08967189  0.35524511  0.28926814
   0.58907851  0.35542329  0.28828883
   0.33926621  1.04666239  0.34563901
   0.83919381  1.04670536  0.34548431
   0.33937775  0.66398262  0.34573219
   0.83913162  0.66402820  0.34559408
   0.08869323  0.35528161  0.39851242
   0.59058579  0.35353719  0.39831626
   0.08624497  0.85910266  0.43488906
   0.59322557  0.85600898  0.43559644
   0.33711055  0.16687460  0.48997826
   0.84010682  0.16679885  0.49130325
   0.84524927  0.55323617  0.48975688
   0.33274567  0.55213241  0.48844558
   1.08609820  0.85722244  0.54460670
   0.58904074  0.84393767  0.54812157
   0.84280846  0.85875502  0.49207771
   0.33911000  0.35546000  1.05551000
   0.83911000  0.35546000  1.05551000
   0.08911000  0.85546000  1.05551000
   0.58911000  0.85546000  1.05551000
   0.08911000  0.35546000  0.20047000
   0.58911000  0.35546000  0.20047000
   0.33911000  0.85546000  0.20047000
   0.83911000  0.85546000  0.20047000
   0.83804510  0.35552585  0.34360124
   0.34084520  0.35545846  0.34384450
   0.08917703  0.85539463  0.34606398
   0.58912243  0.85533053  0.34642526
   0.08768841  0.35793632  0.48640324
   0.58911318  0.36352062  0.48928104
   0.33651226  0.85818544  0.49088807
Direct configuration=    10
   0.56662883  0.26712277  0.56667112
   0.58429509  0.65906007  0.57174949
   0.72940403  0.39999542  0.61228995
   0.44149955  0.40482254  0.61446583
   0.58411075  0.43849140  0.58747260
   0.08911000  0.35546000  1.00000000
   0.58911000  0.35546000  1.00000000
   0.33911000  1.04693000  1.05551000
   0.83911000  1.04693000  1.05551000
   0.33911000  0.66399000  1.05551000
   0.83911000  0.66399000  1.05551000
   0.08911000  0.35546000  0.11102000
   0.58911000  0.35546000  0.11102000
   0.08911000  0.85546000  0.14496000
   0.58911000  0.85546000  0.14496000
   0.33911000  0.16399000  0.20047000
   0.83911000  0.16399000  0.20047000
   0.33911000  0.54693000  0.20047000
   0.83911000  0.54693000  0.20047000
   0.08911000  0.85546000  0.25598000
   0.58911000  0.85546000  0.25598000
   0.08971107  0.35520386  0.28916168
   0.58913410  0.35545091  0.28856923
   0.33950336  1.04666294  0.34546598
   0.83903371  1.04670610  0.34527967
   0.33957229  0.66400095  0.34561210
   0.83902181  0.66403005  0.34544573
   0.08870908  0.35497283  0.39801736
   0.59055817  0.35334811  0.39931865
   0.08630051  0.86047190  0.43466788
   0.59308960  0.85642279  0.43551823
   0.33711658  0.16756507  0.48981568
   0.83959335  0.16739073  0.49118241
   0.84436056  0.55337821  0.48919956
   0.33304284  0.55224470  0.48792413
   1.08625350  0.85788590  0.54429612
   0.58872462  0.84140033  0.54840657
   0.84271256  0.85897551  0.49198209
   0.33911000  0.35546000  1.05551000
   0.83911000  0.35546000  1.05551000
   0.08911000  0.85546000  1.05551000
   0.58911000  0.85546000  1.05551000
   0.08911000  0.35546000  0.20047000
   0.58911000  0.35546000  0.20047000
   0.33911000  0.85546000  0.20047000
   0.83911000  0.85546000  0.20047000
   0.83766921  0.35557268  0.34383389
   0.34128789  0.35551714  0.34406514
   0.08921310  0.85545114  0.34588339
   0.58915332  0.85533590  0.34634092
   0.08730713  0.35870261  0.48558851
   0.58881146  0.36324901  0.49013464
   0.33655610  0.85836666  0.49078916
Direct configuration=    11
   0.56705267  0.26615774  0.56713310
   0.58433998  0.65800517  0.57179291
   0.72926348  0.40142609  0.61246244
   0.44173969  0.40684251  0.61461462
   0.58414339  0.43733380  0.58739442
   0.08911000  0.35546000  1.00000000
   0.58911000  0.35546000  1.00000000
   0.33911000  1.04693000  1.05551000
   0.83911000  1.04693000  1.05551000
   0.33911000  0.66399000  1.05551000
   0.83911000  0.66399000  1.05551000
   0.08911000  0.35546000  0.11102000
   0.58911000  0.35546000  0.11102000
   0.08911000  0.85546000  0.14496000
   0.58911000  0.85546000  0.14496000
   0.33911000  0.16399000  0.20047000
   0.83911000  0.16399000  0.20047000
   0.33911000  0.54693000  0.20047000
   0.83911000  0.54693000  0.20047000
   0.08911000  0.85546000  0.25598000
   0.58911000  0.85546000  0.25598000
   0.08969925  0.35520109  0.28920902
   0.58915718  0.35546540  0.28873410
   0.33959401  1.04666645  0.34541375
   0.83896458  1.04670246  0.34521914
   0.33963225  0.66403573  0.34558293
   0.83899275  0.66405969  0.34541022
   0.08871384  0.35483889  0.39789692
   0.59051453  0.35328243  0.39950726
   0.08627095  0.86097417  0.43462201
   0.59303073  0.85661052  0.43549953
   0.33708848  0.16770525  0.48991262
   0.83947791  0.16753023  0.49126998
   0.84396827  0.55325149  0.48912371
   0.33322005  0.55214547  0.48788371
   1.08622014  0.85808903  0.54418765
   0.58875313  0.84050175  0.54849346
   0.84262177  0.85892058  0.49200994
   0.33911000  0.35546000  1.05551000
   0.83911000  0.35546000  1.05551000
   0.08911000  0.85546000  1.05551000
   0.58911000  0.85546000  1.05551000
   0.08911000  0.35546000  0.20047000
   0.58911000  0.35546000  0.20047000
   0.33911000  0.85546000  0.20047000
   0.83911000  0.85546000  0.20047000
   0.83760974  0.35558461  0.34392343
   0.34134823  0.35553300  0.34415045
   0.08921990  0.85550225  0.34583678
   0.58917087  0.85534752  0.34630819
   0.08721466  0.35881117  0.48539678
   0.58871030  0.36317883  0.49016012
   0.33658435  0.85833371  0.49074427
Direct configuration=    12
   0.56847358  0.26342599  0.56849475
   0.58449812  0.65459506  0.57176802
   0.72898562  0.40592632  0.61299996
   0.44228204  0.41320373  0.61508185
   0.58424140  0.43378864  0.58720802
   0.08911000  0.35546000  1.00000000
   0.58911000  0.35546000  1.00000000
   0.33911000  1.04693000  1.05551000
   0.83911000  1.04693000  1.05551000
   0.33911000  0.66399000  1.05551000
   0.83911000  0.66399000  1.05551000
   0.08911000  0.35546000  0.11102000
   0.58911000  0.35546000  0.11102000
   0.08911000  0.85546000  0.14496000
   0.58911000  0.85546000  0.14496000
   0.33911000  0.16399000  0.20047000
   0.83911000  0.16399000  0.20047000
   0.33911000  0.54693000  0.20047000
   0.83911000  0.54693000  0.20047000
   0.08911000  0.85546000  0.25598000
   0.58911000  0.85546000  0.25598000
   0.08965626  0.35521055  0.28937744
   0.58921850  0.35552010  0.28919283
   0.33985019  1.04669430  0.34525738
   0.83877689  1.04669970  0.34503861
   0.33977790  0.66415766  0.34550632
   0.83893586  0.66417266  0.34531500
   0.08874854  0.35438933  0.39758007
   0.59035794  0.35304044  0.39996535
   0.08616713  0.86256221  0.43449877
   0.59283747  0.85723251  0.43544816
   0.33693945  0.16801611  0.49029399
   0.83918353  0.16789331  0.49160865
   0.84282641  0.55283974  0.48892615
   0.33367290  0.55187243  0.48780403
   1.08611349  0.85867453  0.54385597
   0.58884636  0.83751123  0.54876879
   0.84228902  0.85868774  0.49210557
   0.33911000  0.35546000  1.05551000
   0.83911000  0.35546000  1.05551000
   0.08911000  0.85546000  1.05551000
   0.58911000  0.85546000  1.05551000
   0.08911000  0.35546000  0.20047000
   0.58911000  0.35546000  0.20047000
   0.33911000  0.85546000  0.20047000
   0.83911000  0.85546000  0.20047000
   0.83746808  0.35561527  0.34416660
   0.34147900  0.35557965  0.34438041
   0.08924578  0.85568972  0.34572284
   0.58921880  0.85540312  0.34622242
   0.08694291  0.35900938  0.48494631
   0.58840212  0.36303941  0.49019574
   0.33666736  0.85819706  0.49063656
Direct configuration=    13
   0.56874251  0.26319006  0.56862882
   0.58453788  0.65409954  0.57161521
   0.72907131  0.40660925  0.61306916
   0.44222076  0.41416391  0.61513605
   0.58422463  0.43346011  0.58725447
   0.08911000  0.35546000  1.00000000
   0.58911000  0.35546000  1.00000000
   0.33911000  1.04693000  1.05551000
   0.83911000  1.04693000  1.05551000
   0.33911000  0.66399000  1.05551000
   0.83911000  0.66399000  1.05551000
   0.08911000  0.35546000  0.11102000
   0.58911000  0.35546000  0.11102000
   0.08911000  0.85546000  0.14496000
   0.58911000  0.85546000  0.14496000
   0.33911000  0.16399000  0.20047000
   0.83911000  0.16399000  0.20047000
   0.33911000  0.54693000  0.20047000
   0.83911000  0.54693000  0.20047000
   0.08911000  0.85546000  0.25598000
   0.58911000  0.85546000  0.25598000
   0.08964105  0.35522851  0.28940261
   0.58921728  0.35553933  0.28920052
   0.33985218  1.04670616  0.34524349
   0.83877561  1.04671325  0.34502412
   0.33975781  0.66418332  0.34550924
   0.83895726  0.66419406  0.34531977
   0.08874677  0.35431377  0.39761397
   0.59032631  0.35297422  0.39989916
   0.08611946  0.86277067  0.43449793
   0.59283535  0.85734312  0.43544764
   0.33688888  0.16800362  0.49040953
   0.83917712  0.16785824  0.49170440
   0.84278100  0.55279320  0.48892693
   0.33362522  0.55180747  0.48783056
   1.08605984  0.85868955  0.54383333
   0.58887813  0.83693770  0.54881261
   0.84224397  0.85860770  0.49211791
   0.33911000  0.35546000  1.05551000
   0.83911000  0.35546000  1.05551000
   0.08911000  0.85546000  1.05551000
   0.58911000  0.85546000  1.05551000
   0.08911000  0.35546000  0.20047000
   0.58911000  0.35546000  0.20047000
   0.33911000  0.85546000  0.20047000
   0.83911000  0.85546000  0.20047000
   0.83747624  0.35561901  0.34416885
   0.34145934  0.35558715  0.34438149
   0.08924583  0.85573603  0.34572106
   0.58922417  0.85542442  0.34621592
   0.08691615  0.35891674  0.48499087
   0.58838665  0.36309424  0.49014851
   0.33666920  0.85814710  0.49063917
Direct configuration=    14
   0.56978824  0.26233427  0.56918126
   0.58470663  0.65219944  0.57099403
   0.72940302  0.40926401  0.61333242
   0.44193329  0.41786379  0.61534056
   0.58419955  0.43221724  0.58739265
   0.08911000  0.35546000  1.00000000
   0.58911000  0.35546000  1.00000000
   0.33911000  1.04693000  1.05551000
   0.83911000  1.04693000  1.05551000
   0.33911000  0.66399000  1.05551000
   0.83911000  0.66399000  1.05551000
   0.08911000  0.35546000  0.11102000
   0.58911000  0.35546000  0.11102000
   0.08911000  0.85546000  0.14496000
   0.58911000  0.85546000  0.14496000
   0.33911000  0.16399000  0.20047000
   0.83911000  0.16399000  0.20047000
   0.33911000  0.54693000  0.20047000
   0.83911000  0.54693000  0.20047000
   0.08911000  0.85546000  0.25598000
   0.58911000  0.85546000  0.25598000
   0.08958835  0.35531010  0.28948850
   0.58920999  0.35562215  0.28920604
   0.33986701  1.04676270  0.34519014
   0.83876033  1.04677555  0.34496670
   0.33969109  0.66428311  0.34552258
   0.83902661  0.66427684  0.34534007
   0.08873621  0.35401382  0.39774646
   0.59020722  0.35270389  0.39966216
   0.08598542  0.86357485  0.43449806
   0.59279739  0.85776589  0.43544154
   0.33673794  0.16792461  0.49086596
   0.83911823  0.16772431  0.49208200
   0.84265285  0.55260133  0.48892620
   0.33342060  0.55159396  0.48793123
   1.08590304  0.85871164  0.54376138
   0.58894276  0.83464060  0.54897674
   0.84206580  0.85830705  0.49215597
   0.33911000  0.35546000  1.05551000
   0.83911000  0.35546000  1.05551000
   0.08911000  0.85546000  1.05551000
   0.58911000  0.85546000  1.05551000
   0.08911000  0.35546000  0.20047000
   0.58911000  0.35546000  0.20047000
   0.33911000  0.85546000  0.20047000
   0.83911000  0.85546000  0.20047000
   0.83753127  0.35564168  0.34416763
   0.34135131  0.35561974  0.34437352
   0.08923794  0.85590043  0.34571442
   0.58924138  0.85550510  0.34619531
   0.08681764  0.35856749  0.48518400
   0.58830510  0.36329536  0.49000547
   0.33663894  0.85794637  0.49066667
Direct configuration=    15
   0.57013278  0.26203677  0.56940294
   0.58477554  0.65157517  0.57076597
   0.72952151  0.41017323  0.61341388
   0.44181238  0.41909646  0.61539484
   0.58422021  0.43181232  0.58740981
   0.08911000  0.35546000  1.00000000
   0.58911000  0.35546000  1.00000000
   0.33911000  1.04693000  1.05551000
   0.83911000  1.04693000  1.05551000
   0.33911000  0.66399000  1.05551000
   0.83911000  0.66399000  1.05551000
   0.08911000  0.35546000  0.11102000
   0.58911000  0.35546000  0.11102000
   0.08911000  0.85546000  0.14496000
   0.58911000  0.85546000  0.14496000
   0.33911000  0.16399000  0.20047000
   0.83911000  0.16399000  0.20047000
   0.33911000  0.54693000  0.20047000
   0.83911000  0.54693000  0.20047000
   0.08911000  0.85546000  0.25598000
   0.58911000  0.85546000  0.25598000
   0.08957366  0.35534921  0.28949862
   0.58920382  0.35565868  0.28918733
   0.33986418  1.04678857  0.34517314
   0.83875986  1.04679888  0.34494866
   0.33966390  0.66431956  0.34553124
   0.83904773  0.66430905  0.34535171
   0.08872441  0.35390692  0.39780931
   0.59016777  0.35259682  0.39961316
   0.08594110  0.86383710  0.43450841