  48  48   0   0
  0.1863536E+02  0.6362157E-09  0.6384483E-09  0.2202160E-08  0.1000000E-15
  1.000000000000000E-004
  CAR 
                                         
     11.83823009    -21.60426227  301      0.93458452      1.00000000
    -21.604  0.0000E+00  0.0000E+00  0.0000E+00  0.0000E+00
    -21.493  0.0000E+00  0.0000E+00  0.0000E+00  0.0000E+00
    -21.381  0.0000E+00  0.0000E+00  0.0000E+00  0.0000E+00
    -21.270  0.0000E+00  0.0000E+00  0.0000E+00  0.0000E+00
    -21.158  0.0000E+00  0.0000E+00  0.0000E+00  0.0000E+00
    -21.047  0.0000E+00  0.0000E+00  0.0000E+00  0.0000E+00
    -20.935  0.0000E+00  0.0000E+00  0.0000E+00  0.0000E+00
    -20.824  0.0000E+00  0.0000E+00  0.0000E+00  0.0000E+00
    -20.712  0.0000E+00  0.0000E+00  0.0000E+00  0.0000E+00
    -20.601  0.0000E+00  0.0000E+00  0.0000E+00  0.0000E+00
    -20.490  0.0000E+00  0.0000E+00  0.0000E+00  0.0000E+00
    -20.378  0.3112E-19  0.0000E+00  0.3469E-20  0.0000E+00
    -20.267  0.6944E-10  0.2443E-10  0.7740E-11  0.2724E-11
    -20.155  0.1256E-04  0.7822E-05  0.1400E-05  0.8719E-06
    -20.044  0.4999E-03  0.4702E-03  0.5712E-04  0.5329E-04
    -19.932  0.1761E-02  0.1646E-02  0.2534E-03  0.2368E-03
    -19.821  0.2138E-02  0.2086E-02  0.4917E-03  0.4693E-03
    -19.709  0.2042E-02  0.2044E-02  0.7193E-03  0.6971E-03
    -19.598  0.4262E-02  0.3987E-02  0.1194E-02  0.1142E-02
    -19.486  0.6209E-02  0.6332E-02  0.1886E-02  0.1847E-02
    -19.375  0.5177E-02  0.5134E-02  0.2464E-02  0.2420E-02
    -19.263  0.9942E-02  0.9661E-02  0.3572E-02  0.3497E-02
    -19.152  0.6893E-02  0.6988E-02  0.4340E-02  0.4276E-02
    -19.040  0.1169E-01  0.1107E-01  0.5643E-02  0.5509E-02
    -18.929  0.1281E-01  0.1266E-01  0.7071E-02  0.6920E-02
    -18.817  0.2013E-01  0.1924E-01  0.9315E-02  0.9065E-02
    -18.706  0.1687E-01  0.1842E-01  0.1120E-01  0.1112E-01
    -18.594  0.1612E-01  0.1539E-01  0.1299E-01  0.1283E-01
    -18.483  0.2333E-01  0.2292E-01  0.1559E-01  0.1539E-01
    -18.371  0.2807E-01  0.2788E-01  0.1872E-01  0.1850E-01
    -18.260  0.2506E-01  0.2495E-01  0.2152E-01  0.2128E-01
    -18.149  0.1641E-01  0.1709E-01  0.2335E-01  0.2318E-01
    -18.037  0.8285E-02  0.7911E-02  0.2427E-01  0.2406E-01
    -17.926  0.1138E-01  0.1329E-01  0.2554E-01  0.2554E-01
    -17.814  0.1140E-01  0.1159E-01  0.2681E-01  0.2684E-01
    -17.703  0.5448E-02  0.4829E-02  0.2742E-01  0.2738E-01
    -17.591  0.3389E-02  0.3602E-02  0.2779E-01  0.2778E-01
    -17.480  0.1666E-02  0.1786E-02  0.2798E-01  0.2798E-01
    -17.368  0.6352E-03  0.2147E-03  0.2805E-01  0.2800E-01
    -17.257  0.7337E-02  0.6732E-07  0.2887E-01  0.2800E-01
    -17.145  0.3337E-02  0.1806E-08  0.2924E-01  0.2800E-01
    -17.034  0.5935E-02  0.1401E-03  0.2990E-01  0.2802E-01
    -16.922  0.8772E-03  0.6281E-02  0.3000E-01  0.2872E-01
    -16.811  0.2159E-03  0.7922E-02  0.3002E-01  0.2960E-01
    -16.699  0.1035E-01  0.1320E-01  0.3118E-01  0.3107E-01
    -16.588  0.7294E-02  0.8210E-02  0.3199E-01  0.3199E-01
    -16.476  0.8449E-04  0.1242E-03  0.3200E-01  0.3200E-01
    -16.365  0.6794E-09  0.1569E-08  0.3200E-01  0.3200E-01
    -16.253  0.4980E-18  0.1743E-17  0.3200E-01  0.3200E-01
    -16.142  0.0000E+00  0.0000E+00  0.3200E-01  0.3200E-01
    -16.031  0.0000E+00  0.0000E+00  0.3200E-01  0.3200E-01
    -15.919  0.0000E+00  0.0000E+00  0.3200E-01  0.3200E-01
    -15.808  0.0000E+00  0.0000E+00  0.3200E-01  0.3200E-01
    -15.696  0.0000E+00  0.0000E+00  0.3200E-01  0.3200E-01
    -15.585  0.0000E+00  0.0000E+00  0.3200E-01  0.3200E-01
    -15.473  0.0000E+00  0.0000E+00  0.3200E-01  0.3200E-01
    -15.362  0.0000E+00  0.0000E+00  0.3200E-01  0.3200E-01
    -15.250  0.0000E+00  0.0000E+00  0.3200E-01  0.3200E-01
    -15.139  0.0000E+00  0.0000E+00  0.3200E-01  0.3200E-01
    -15.027  0.0000E+00  0.0000E+00  0.3200E-01  0.3200E-01
    -14.916  0.0000E+00  0.0000E+00  0.3200E-01  0.3200E-01
    -14.804  0.0000E+00  0.0000E+00  0.3200E-01  0.3200E-01
    -14.693  0.0000E+00  0.0000E+00  0.3200E-01  0.3200E-01
    -14.581  0.0000E+00  0.0000E+00  0.3200E-01  0.3200E-01
    -14.470  0.0000E+00  0.0000E+00  0.3200E-01  0.3200E-01
    -14.358  0.0000E+00  0.0000E+00  0.3200E-01  0.3200E-01
    -14.247  0.0000E+00  0.0000E+00  0.3200E-01  0.3200E-01
    -14.135  0.0000E+00  0.0000E+00  0.3200E-01  0.3200E-01
    -14.024  0.0000E+00  0.0000E+00  0.3200E-01  0.3200E-01
    -13.912  0.0000E+00  0.0000E+00  0.3200E-01  0.3200E-01
    -13.801  0.0000E+00  0.0000E+00  0.3200E-01  0.3200E-01
    -13.690  0.0000E+00  0.0000E+00  0.3200E-01  0.3200E-01
    -13.578  0.0000E+00  0.0000E+00  0.3200E-01  0.3200E-01
    -13.467  0.0000E+00  0.0000E+00  0.3200E-01  0.3200E-01
    -13.355  0.0000E+00  0.0000E+00  0.3200E-01  0.3200E-01
    -13.244  0.0000E+00  0.0000E+00  0.3200E-01  0.3200E-01
    -13.132  0.0000E+00  0.0000E+00  0.3200E-01  0.3200E-01
    -13.021  0.0000E+00  0.0000E+00  0.3200E-01  0.3200E-01
    -12.909  0.0000E+00  0.0000E+00  0.3200E-01  0.3200E-01
    -12.798  0.0000E+00  0.0000E+00  0.3200E-01  0.3200E-01
    -12.686  0.0000E+00  0.0000E+00  0.3200E-01  0.3200E-01
    -12.575  0.0000E+00  0.0000E+00  0.3200E-01  0.3200E-01
    -12.463  0.0000E+00  0.0000E+00  0.3200E-01  0.3200E-01
    -12.352  0.0000E+00  0.0000E+00  0.3200E-01  0.3200E-01
    -12.240  0.0000E+00  0.0000E+00  0.3200E-01  0.3200E-01
    -12.129  0.0000E+00  0.0000E+00  0.3200E-01  0.3200E-01
    -12.017  0.0000E+00  0.0000E+00  0.3200E-01  0.3200E-01
    -11.906  0.0000E+00  0.0000E+00  0.3200E-01  0.3200E-01
    -11.794  0.0000E+00  0.0000E+00  0.3200E-01  0.3200E-01
    -11.683  0.0000E+00  0.0000E+00  0.3200E-01  0.3200E-01
    -11.572  0.0000E+00  0.0000E+00  0.3200E-01  0.3200E-01
    -11.460  0.0000E+00  0.0000E+00  0.3200E-01  0.3200E-01
    -11.349  0.0000E+00  0.0000E+00  0.3200E-01  0.3200E-01
    -11.237  0.0000E+00  0.0000E+00  0.3200E-01  0.3200E-01
    -11.126  0.0000E+00  0.0000E+00  0.3200E-01  0.3200E-01
    -11.014  0.0000E+00  0.0000E+00  0.3200E-01  0.3200E-01
    -10.903  0.0000E+00  0.0000E+00  0.3200E-01  0.3200E-01
    -10.791  0.0000E+00  0.0000E+00  0.3200E-01  0.3200E-01
    -10.680  0.0000E+00  0.0000E+00  0.3200E-01  0.3200E-01
    -10.568  0.0000E+00  0.0000E+00  0.3200E-01  0.3200E-01
    -10.457  0.0000E+00  0.0000E+00  0.3200E-01  0.3200E-01
    -10.345  0.0000E+00  0.0000E+00  0.3200E-01  0.3200E-01
    -10.234  0.0000E+00  0.0000E+00  0.3200E-01  0.3200E-01
    -10.122  0.0000E+00  0.0000E+00  0.3200E-01  0.3200E-01
    -10.011  0.0000E+00  0.0000E+00  0.3200E-01  0.3200E-01
     -9.899  0.0000E+00  0.0000E+00  0.3200E-01  0.3200E-01
     -9.788  0.0000E+00  0.0000E+00  0.3200E-01  0.3200E-01
     -9.676  0.0000E+00  0.0000E+00  0.3200E-01  0.3200E-01
     -9.565  0.0000E+00  0.0000E+00  0.3200E-01  0.3200E-01
     -9.453  0.0000E+00  0.0000E+00  0.3200E-01  0.3200E-01
     -9.342  0.0000E+00  0.0000E+00  0.3200E-01  0.3200E-01
     -9.231  0.0000E+00  0.0000E+00  0.3200E-01  0.3200E-01
     -9.119  0.0000E+00  0.0000E+00  0.3200E-01  0.3200E-01
     -9.008  0.0000E+00  0.0000E+00  0.3200E-01  0.3200E-01
     -8.896  0.1585E-10  0.7847E-11  0.3200E-01  0.3200E-01
     -8.785  0.7036E-05  0.5262E-05  0.3200E-01  0.3200E-01
     -8.673  0.7578E-03  0.7429E-03  0.3209E-01  0.3208E-01
     -8.562  0.1021E-02  0.9776E-03  0.3220E-01  0.3219E-01
     -8.450  0.2230E-02  0.2246E-02  0.3245E-01  0.3244E-01
     -8.339  0.1016E-02  0.1051E-02  0.3256E-01  0.3256E-01
     -8.227  0.1277E-02  0.9927E-03  0.3270E-01  0.3267E-01
     -8.116  0.5249E-02  0.5330E-02  0.3329E-01  0.3326E-01
     -8.004  0.1254E-01  0.1197E-01  0.3469E-01  0.3460E-01
     -7.893  0.7332E-02  0.7865E-02  0.3550E-01  0.3548E-01
     -7.781  0.1177E-02  0.1342E-02  0.3563E-01  0.3563E-01
     -7.670  0.4585E-02  0.4323E-02  0.3615E-01  0.3611E-01
     -7.558  0.1047E-01  0.9834E-02  0.3731E-01  0.3720E-01
     -7.447  0.6121E-02  0.6836E-02  0.3800E-01  0.3797E-01
     -7.335  0.1221E-01  0.1186E-01  0.3936E-01  0.3929E-01
     -7.224  0.1267E-01  0.1277E-01  0.4077E-01  0.4071E-01
     -7.113  0.8719E-02  0.8390E-02  0.4174E-01  0.4165E-01
     -7.001  0.2251E-01  0.2132E-01  0.4425E-01  0.4402E-01
     -6.890  0.3025E-01  0.3067E-01  0.4762E-01  0.4744E-01
     -6.778  0.2673E-01  0.2624E-01  0.5060E-01  0.5037E-01
     -6.667  0.1904E-01  0.1594E-01  0.5273E-01  0.5214E-01
     -6.555  0.1749E-01  0.1763E-01  0.5467E-01  0.5411E-01
     -6.444  0.1534E-01  0.1714E-01  0.5638E-01  0.5602E-01
     -6.332  0.1540E-01  0.1657E-01  0.5810E-01  0.5787E-01
     -6.221  0.1505E-01  0.1474E-01  0.5978E-01  0.5951E-01
     -6.109  0.1315E-01  0.1172E-01  0.6125E-01  0.6082E-01
     -5.998  0.1541E-01  0.1575E-01  0.6296E-01  0.6257E-01
     -5.886  0.1284E-01  0.1351E-01  0.6439E-01  0.6408E-01
     -5.775  0.1321E-01  0.1153E-01  0.6587E-01  0.6537E-01
     -5.663  0.1538E-01  0.1636E-01  0.6758E-01  0.6719E-01
     -5.552  0.1203E-01  0.1408E-01  0.6892E-01  0.6876E-01
     -5.440  0.9839E-02  0.1001E-01  0.7002E-01  0.6987E-01
     -5.329  0.1088E-01  0.9981E-02  0.7123E-01  0.7099E-01
     -5.217  0.1076E-01  0.1005E-01  0.7243E-01  0.7211E-01
     -5.106  0.1039E-01  0.1076E-01  0.7359E-01  0.7331E-01
     -4.994  0.1452E-01  0.1221E-01  0.7521E-01  0.7467E-01
     -4.883  0.1355E-01  0.1518E-01  0.7672E-01  0.7636E-01
     -4.772  0.1702E-01  0.1698E-01  0.7862E-01  0.7825E-01
     -4.660  0.1436E-01  0.1364E-01  0.8022E-01  0.7977E-01
     -4.549  0.1932E-01  0.1805E-01  0.8237E-01  0.8178E-01
     -4.437  0.1904E-01  0.2035E-01  0.8449E-01  0.8405E-01
     -4.326  0.1789E-01  0.1720E-01  0.8649E-01  0.8597E-01
     -4.214  0.2057E-01  0.2057E-01  0.8878E-01  0.8826E-01
     -4.103  0.2161E-01  0.2103E-01  0.9119E-01  0.9061E-01
     -3.991  0.2124E-01  0.2213E-01  0.9356E-01  0.9308E-01
     -3.880  0.2006E-01  0.1839E-01  0.9579E-01  0.9513E-01
     -3.768  0.2076E-01  0.2257E-01  0.9811E-01  0.9764E-01
     -3.657  0.1629E-01  0.1742E-01  0.9993E-01  0.9958E-01
     -3.545  0.1595E-01  0.1427E-01  0.1017E+00  0.1012E+00
     -3.434  0.1829E-01  0.1705E-01  0.1037E+00  0.1031E+00
     -3.322  0.1537E-01  0.1731E-01  0.1055E+00  0.1050E+00
     -3.211  0.1351E-01  0.1292E-01  0.1070E+00  0.1064E+00
     -3.099  0.1345E-01  0.1283E-01  0.1085E+00  0.1079E+00
     -2.988  0.1355E-01  0.1422E-01  0.1100E+00  0.1095E+00
     -2.876  0.1341E-01  0.1248E-01  0.1115E+00  0.1109E+00
     -2.765  0.1786E-01  0.1544E-01  0.1135E+00  0.1126E+00
     -2.654  0.9607E-02  0.1297E-01  0.1145E+00  0.1140E+00
     -2.542  0.1485E-01  0.1207E-01  0.1162E+00  0.1154E+00
     -2.431  0.1216E-01  0.9444E-02  0.1175E+00  0.1164E+00
     -2.319  0.1277E-01  0.1027E-01  0.1190E+00  0.1176E+00
     -2.208  0.1431E-01  0.1400E-01  0.1206E+00  0.1191E+00
     -2.096  0.1260E-01  0.1465E-01  0.1220E+00  0.1208E+00
     -1.985  0.1297E-01  0.1646E-01  0.1234E+00  0.1226E+00
     -1.873  0.1566E-01  0.1869E-01  0.1252E+00  0.1247E+00
     -1.762  0.1089E-01  0.8296E-02  0.1264E+00  0.1256E+00
     -1.650  0.7639E-02  0.1048E-01  0.1272E+00  0.1268E+00
     -1.539  0.6809E-02  0.7885E-02  0.1280E+00  0.1276E+00
     -1.427  0.6892E-02  0.7198E-02  0.1287E+00  0.1285E+00
     -1.316  0.1211E-01  0.1126E-01  0.1301E+00  0.1297E+00
     -1.204  0.1298E-01  0.1270E-01  0.1315E+00  0.1311E+00
     -1.093  0.1560E-01  0.1355E-01  0.1333E+00  0.1326E+00
     -0.981  0.1739E-01  0.1998E-01  0.1352E+00  0.1349E+00
     -0.870  0.2637E-01  0.2478E-01  0.1382E+00  0.1376E+00
     -0.758  0.3006E-01  0.2954E-01  0.1415E+00  0.1409E+00
     -0.647  0.2363E-01  0.2185E-01  0.1441E+00  0.1433E+00
     -0.535  0.2345E-01  0.2424E-01  0.1468E+00  0.1461E+00
     -0.424  0.2159E-01  0.2235E-01  0.1492E+00  0.1485E+00
     -0.313  0.1727E-01  0.1857E-01  0.1511E+00  0.1506E+00
     -0.201  0.1446E-01  0.1226E-01  0.1527E+00  0.1520E+00
     -0.090  0.1392E-01  0.1168E-01  0.1543E+00  0.1533E+00
      0.022  0.1577E-01  0.1394E-01  0.1560E+00  0.1548E+00
      0.133  0.1280E-01  0.1685E-01  0.1574E+00  0.1567E+00
      0.245  0.1151E-01  0.1215E-01  0.1587E+00  0.1581E+00
      0.356  0.1188E-01  0.9944E-02  0.1600E+00  0.1592E+00
      0.468  0.1388E-01  0.1138E-01  0.1616E+00  0.1604E+00
      0.579  0.1801E-01  0.1654E-01  0.1636E+00  0.1623E+00
      0.691  0.1183E-01  0.1172E-01  0.1649E+00  0.1636E+00
      0.802  0.1663E-01  0.1271E-01  0.1668E+00  0.1650E+00
      0.914  0.1613E-01  0.1587E-01  0.1686E+00  0.1668E+00
      1.025  0.1505E-01  0.1672E-01  0.1702E+00  0.1686E+00
      1.137  0.1570E-01  0.1699E-01  0.1720E+00  0.1705E+00
      1.248  0.1406E-01  0.1638E-01  0.1736E+00  0.1724E+00
      1.360  0.1487E-01  0.1617E-01  0.1752E+00  0.1742E+00
      1.471  0.1379E-01  0.1365E-01  0.1768E+00  0.1757E+00
      1.583  0.1128E-01  0.1305E-01  0.1780E+00  0.1771E+00
      1.694  0.1112E-01  0.1286E-01  0.1793E+00  0.1786E+00
      1.805  0.4477E-02  0.5539E-02  0.1798E+00  0.1792E+00
      1.917  0.7147E-02  0.7027E-02  0.1806E+00  0.1800E+00
      2.028  0.1952E-02  0.6137E-02  0.1808E+00  0.1807E+00
      2.140  0.3298E-02  0.3957E-02  0.1811E+00  0.1811E+00
      2.251  0.2129E-02  0.1751E-02  0.1814E+00  0.1813E+00
      2.363  0.5184E-02  0.3763E-02  0.1820E+00  0.1817E+00
      2.474  0.3518E-02  0.3797E-02  0.1823E+00  0.1821E+00
      2.586  0.7119E-02  0.6212E-02  0.1831E+00  0.1828E+00
      2.697  0.4584E-02  0.6773E-02  0.1837E+00  0.1836E+00
      2.809  0.5798E-02  0.5797E-02  0.1843E+00  0.1842E+00
      2.920  0.4036E-02  0.3979E-02  0.1847E+00  0.1847E+00
      3.032  0.5662E-02  0.4575E-02  0.1854E+00  0.1852E+00
      3.143  0.5511E-02  0.5701E-02  0.1860E+00  0.1858E+00
      3.255  0.8937E-02  0.7522E-02  0.1870E+00  0.1867E+00
      3.366  0.8862E-02  0.7016E-02  0.1880E+00  0.1874E+00
      3.478  0.7198E-02  0.9125E-02  0.1888E+00  0.1885E+00
      3.589  0.9421E-02  0.1017E-01  0.1898E+00  0.1896E+00
      3.701  0.8487E-02  0.9273E-02  0.1908E+00  0.1906E+00
      3.812  0.9416E-02  0.4300E-02  0.1918E+00  0.1911E+00
      3.924  0.8217E-02  0.1084E-01  0.1927E+00  0.1923E+00
      4.035  0.1098E-01  0.1146E-01  0.1940E+00  0.1936E+00
      4.146  0.7867E-02  0.7939E-02  0.1948E+00  0.1945E+00
      4.258  0.9551E-02  0.7337E-02  0.1959E+00  0.1953E+00
      4.369  0.8027E-02  0.1171E-01  0.1968E+00  0.1966E+00
      4.481  0.6867E-02  0.7613E-02  0.1976E+00  0.1975E+00
      4.592  0.1253E-01  0.8684E-02  0.1990E+00  0.1984E+00
      4.704  0.1237E-01  0.1236E-01  0.2003E+00  0.1998E+00
      4.815  0.1296E-01  0.1355E-01  0.2018E+00  0.2013E+00
      4.927  0.1449E-01  0.1491E-01  0.2034E+00  0.2030E+00
      5.038  0.1119E-01  0.1234E-01  0.2047E+00  0.2043E+00
      5.150  0.9765E-02  0.6761E-02  0.2057E+00  0.2051E+00
      5.261  0.5264E-02  0.8204E-02  0.2063E+00  0.2060E+00
      5.373  0.6819E-02  0.8127E-02  0.2071E+00  0.2069E+00
      5.484  0.5980E-02  0.5931E-02  0.2078E+00  0.2076E+00
      5.596  0.2203E-02  0.3406E-02  0.2080E+00  0.2080E+00
      5.707  0.5670E-04  0.3756E-03  0.2080E+00  0.2080E+00
      5.819  0.9472E-03  0.4933E-03  0.2081E+00  0.2081E+00
      5.930  0.1657E-02  0.1859E-02  0.2083E+00  0.2083E+00
      6.042  0.4159E-02  0.3845E-02  0.2088E+00  0.2087E+00
      6.153  0.3896E-02  0.3526E-02  0.2092E+00  0.2091E+00
      6.264  0.1626E-02  0.2548E-02  0.2094E+00  0.2094E+00
      6.376  0.1141E-02  0.1216E-02  0.2095E+00  0.2095E+00
      6.487  0.3008E-02  0.2633E-02  0.2098E+00  0.2098E+00
      6.599  0.3245E-02  0.3363E-02  0.2102E+00  0.2102E+00
      6.710  0.1789E-02  0.1882E-02  0.2104E+00  0.2104E+00
      6.822  0.2286E-02  0.2252E-02  0.2107E+00  0.2106E+00
      6.933  0.1469E-02  0.1488E-02  0.2108E+00  0.2108E+00
      7.045  0.1269E-02  0.1252E-02  0.2110E+00  0.2109E+00
      7.156  0.1061E-02  0.1107E-02  0.2111E+00  0.2111E+00
      7.268  0.2228E-02  0.2316E-02  0.2113E+00  0.2113E+00
      7.379  0.3963E-02  0.4785E-02  0.2118E+00  0.2119E+00
      7.491  0.6135E-02  0.6223E-02  0.2124E+00  0.2125E+00
      7.602  0.3293E-02  0.4420E-02  0.2128E+00  0.2130E+00
      7.714  0.5402E-02  0.3814E-02  0.2134E+00  0.2135E+00
      7.825  0.3914E-02  0.3285E-02  0.2139E+00  0.2138E+00
      7.937  0.2239E-02  0.2132E-02  0.2141E+00  0.2141E+00
      8.048  0.4381E-02  0.5112E-02  0.2146E+00  0.2146E+00
      8.160  0.3174E-02  0.4587E-02  0.2149E+00  0.2151E+00
      8.271  0.7488E-02  0.6678E-02  0.2158E+00  0.2159E+00
      8.383  0.3483E-02  0.2496E-02  0.2162E+00  0.2162E+00
      8.494  0.3942E-02  0.4366E-02  0.2166E+00  0.2167E+00
      8.605  0.6845E-02  0.6911E-02  0.2174E+00  0.2174E+00
      8.717  0.3496E-02  0.3004E-02  0.2178E+00  0.2178E+00
      8.828  0.4318E-02  0.4717E-02  0.2182E+00  0.2183E+00
      8.940  0.4603E-02  0.4624E-02  0.2188E+00  0.2188E+00
      9.051  0.6870E-02  0.8162E-02  0.2195E+00  0.2197E+00
      9.163  0.7179E-02  0.7032E-02  0.2203E+00  0.2205E+00
      9.274  0.1037E-01  0.9630E-02  0.2215E+00  0.2216E+00
      9.386  0.5395E-02  0.4971E-02  0.2221E+00  0.2221E+00
      9.497  0.8476E-02  0.8536E-02  0.2230E+00  0.2231E+00
      9.609  0.1084E-01  0.1213E-01  0.2242E+00  0.2244E+00
      9.720  0.9849E-02  0.9184E-02  0.2253E+00  0.2255E+00
      9.832  0.5418E-02  0.5452E-02  0.2259E+00  0.2261E+00
      9.943  0.5088E-02  0.3812E-02  0.2265E+00  0.2265E+00
     10.055  0.7829E-02  0.8058E-02  0.2274E+00  0.2274E+00
     10.166  0.1696E-02  0.1907E-02  0.2276E+00  0.2276E+00
     10.278  0.3189E-02  0.2731E-02  0.2279E+00  0.2279E+00
     10.389  0.7239E-03  0.8561E-03  0.2280E+00  0.2280E+00
     10.501  0.7445E-06  0.1307E-04  0.2280E+00  0.2280E+00
     10.612  0.1198E-12  0.6954E-10  0.2280E+00  0.2280E+00
     10.723  0.0000E+00  0.0000E+00  0.2280E+00  0.2280E+00
     10.835  0.0000E+00  0.0000E+00  0.2280E+00  0.2280E+00
     10.946  0.0000E+00  0.0000E+00  0.2280E+00  0.2280E+00
     11.058  0.0000E+00  0.0000E+00  0.2280E+00  0.2280E+00
     11.169  0.0000E+00  0.0000E+00  0.2280E+00  0.2280E+00
     11.281  0.0000E+00  0.0000E+00  0.2280E+00  0.2280E+00
     11.392  0.0000E+00  0.0000E+00  0.2280E+00  0.2280E+00
     11.504  0.0000E+00  0.0000E+00  0.2280E+00  0.2280E+00
     11.615  0.0000E+00  0.0000E+00  0.2280E+00  0.2280E+00
     11.727  0.0000E+00  0.0000E+00  0.2280E+00  0.2280E+00
     11.838  0.0000E+00  0.0000E+00  0.2280E+00  0.2280E+00
