                                        
           1
     6.362157    0.000000    0.000000
     0.000000    6.384483    0.000000
     0.000000    0.000000   22.021598
   O    Ru   Pd   Ir
  32   1   1  14
Direct configuration=     1
   0.08911000  0.35546000  0.00000000
   0.58911000  0.35546000  0.00000000
   0.33911000  0.04693000  0.05551000
   0.83911000  0.04693000  0.05551000
   0.33911000  0.66399000  0.05551000
   0.83911000  0.66399000  0.05551000
   0.08911000  0.35546000  0.11102000
   0.58911000  0.35546000  0.11102000
   0.58911000  0.85546000  0.14496000
   0.08911000  0.85546000  0.14496000
   0.33911000  0.16399000  0.20047000
   0.83911000  0.16399000  0.20047000
   0.33911000  0.54693000  0.20047000
   0.83911000  0.54693000  0.20047000
   0.08911000  0.85546000  0.25598000
   0.58911000  0.85546000  0.25598000
   0.08914000  0.35542000  0.28947000
   0.58914000  0.35542000  0.28947000
   0.33913000  0.04670000  0.34597000
   0.83913000  0.04670000  0.34597000
   0.33911000  0.66418000  0.34595000
   0.83911000  0.66418000  0.34595000
   0.08916000  0.35571000  0.39990000
   0.58916000  0.35571000  0.39990000
   0.08915000  0.85549000  0.43609000
   0.58915000  0.85549000  0.43609000
   0.33914000  0.16538000  0.49406000
   0.83914000  0.16538000  0.49406000
   0.33915000  0.54556000  0.49405000
   0.83915000  0.54556000  0.49405000
   0.08915000  0.85548000  0.54665000
   0.58915000  0.85548000  0.54665000
   0.33915000  0.85545000  0.49288000
   0.58913000  0.35545000  0.48811000
   0.33911000  0.35546000  0.05551000
   0.83911000  0.35546000  0.05551000
   0.08911000  0.85546000  0.05551000
   0.58911000  0.85546000  0.05551000
   0.08911000  0.35546000  0.20047000
   0.58911000  0.35546000  0.20047000
   0.33911000  0.85546000  0.20047000
   0.83911000  0.85546000  0.20047000
   0.83914000  0.35543000  0.34488000
   0.33914000  0.35543000  0.34488000
   0.08911000  0.85543000  0.34634000
   0.58911000  0.85543000  0.34634000
   0.08913000  0.35545000  0.48811000
   0.83915000  0.85545000  0.49288000
Direct configuration=     2
   0.08911000  0.35546000  0.00000000
   0.58911000  0.35546000  0.00000000
   0.33911000  0.04693000  0.05551000
   0.83911000  0.04693000  0.05551000
   0.33911000  0.66399000  0.05551000
   0.83911000  0.66399000  0.05551000
   0.08911000  0.35546000  0.11102000
   0.58911000  0.35546000  0.11102000
   0.58911000  0.85546000  0.14496000
   0.08911000  0.85546000  0.14496000
   0.33911000  0.16399000  0.20047000
   0.83911000  0.16399000  0.20047000
   0.33911000  0.54693000  0.20047000
   0.83911000  0.54693000  0.20047000
   0.08911000  0.85546000  0.25598000
   0.58911000  0.85546000  0.25598000
   0.08915488  0.35541739  0.28942503
   0.58912612  0.35541795  0.28948966
   0.33913059  0.04677945  0.34597300
   0.83913005  0.04677462  0.34596125
   0.33911259  0.66410271  0.34595232
   0.83911183  0.66410733  0.34594062
   0.08919643  0.35571196  0.39992235
   0.58911924  0.35571802  0.39887219
   0.08961906  0.85549060  0.43602228
   0.58869022  0.85549054  0.43599856
   0.33823203  0.16477270  0.49419536
   0.83997152  0.16471918  0.49422699
   0.33824328  0.54616519  0.49418570
   0.83998150  0.54621727  0.49421727
   0.08994150  0.85548014  0.54634680
   0.58831364  0.85548118  0.54628110
   0.33968089  0.85544889  0.49352443
   0.58873023  0.35544374  0.48889159
   0.33911000  0.35546000  0.05551000
   0.83911000  0.35546000  0.05551000
   0.08911000  0.85546000  0.05551000
   0.58911000  0.85546000  0.05551000
   0.08911000  0.35546000  0.20047000
   0.58911000  0.35546000  0.20047000
   0.33911000  0.85546000  0.20047000
   0.83911000  0.85546000  0.20047000
   0.83822276  0.35542979  0.34489908
   0.34005599  0.35543014  0.34490137
   0.08895702  0.85543237  0.34642817
   0.58927147  0.85543214  0.34641280
   0.08959340  0.35544966  0.48782333
   0.83873260  0.85544956  0.49292005
Direct configuration=     3
   0.08911000  0.35546000  0.00000000
   0.58911000  0.35546000  0.00000000
   0.33911000  0.04693000  0.05551000
   0.83911000  0.04693000  0.05551000
   0.33911000  0.66399000  0.05551000
   0.83911000  0.66399000  0.05551000
   0.08911000  0.35546000  0.11102000
   0.58911000  0.35546000  0.11102000
   0.58911000  0.85546000  0.14496000
   0.08911000  0.85546000  0.14496000
   0.33911000  0.16399000  0.20047000
   0.83911000  0.16399000  0.20047000
   0.33911000  0.54693000  0.20047000
   0.83911000  0.54693000  0.20047000
   0.08911000  0.85546000  0.25598000
   0.58911000  0.85546000  0.25598000
   0.08917950  0.35541308  0.28935064
   0.58910317  0.35541457  0.28952217
   0.33913157  0.04691088  0.34597797
   0.83913013  0.04689804  0.34594678
   0.33911687  0.66397485  0.34595616
   0.83911487  0.66398713  0.34592510
   0.08925669  0.35571520  0.39995931
   0.58905183  0.35573127  0.39717207
   0.09039494  0.85549158  0.43591026
   0.58792969  0.85549144  0.43584730
   0.33673015  0.16376817  0.49441926
   0.84134695  0.16362612  0.49450320
   0.33674346  0.54716624  0.49441016
   0.84135688  0.54730445  0.49449395
   0.09125071  0.85548038  0.54584526
   0.58693020  0.85548314  0.54567091
   0.34055903  0.85544706  0.49459039
   0.58806896  0.35543339  0.49018443
   0.33911000  0.35546000  0.05551000
   0.83911000  0.35546000  0.05551000
   0.08911000  0.85546000  0.05551000
   0.58911000  0.85546000  0.05551000
   0.08911000  0.35546000  0.20047000
   0.58911000  0.35546000  0.20047000
   0.33911000  0.85546000  0.20047000
   0.83911000  0.85546000  0.20047000
   0.83670554  0.35542944  0.34493064
   0.34157115  0.35543036  0.34493671
   0.08870398  0.85543630  0.34657401
   0.58953855  0.85543568  0.34653322
   0.09035992  0.35544910  0.48734913
   0.83804217  0.85544883  0.49298629
Direct configuration=     4
   0.08911000  0.35546000  0.00000000
   0.58911000  0.35546000  0.00000000
   0.33911000  0.04693000  0.05551000
   0.83911000  0.04693000  0.05551000
   0.33911000  0.66399000  0.05551000
   0.83911000  0.66399000  0.05551000
   0.08911000  0.35546000  0.11102000
   0.58911000  0.35546000  0.11102000
   0.58911000  0.85546000  0.14496000
   0.08911000  0.85546000  0.14496000
   0.33911000  0.16399000  0.20047000
   0.83911000  0.16399000  0.20047000
   0.33911000  0.54693000  0.20047000
   0.83911000  0.54693000  0.20047000
   0.08911000  0.85546000  0.25598000
   0.58911000  0.85546000  0.25598000
   0.08919000  0.35541124  0.28931891
   0.58909338  0.35541313  0.28953604
   0.33913198  0.04696694  0.34598009
   0.83913016  0.04695069  0.34594061
   0.33911870  0.66392031  0.34595780
   0.83911616  0.66393586  0.34591848
   0.08928239  0.35571659  0.39997508
   0.58902307  0.35573693  0.39644684
   0.09072592  0.85549200  0.43586247
   0.58760527  0.85549183  0.43578278
   0.33608948  0.16333966  0.49451477
   0.84193368  0.16315984  0.49462103
   0.33610367  0.54759327  0.49450591
   0.84194359  0.54776823  0.49461198
   0.09180920  0.85548049  0.54563132
   0.58634006  0.85548398  0.54541061
   0.34093362  0.85544628  0.49504510
   0.58778688  0.35542897  0.49073593
   0.33911000  0.35546000  0.05551000
   0.83911000  0.35546000  0.05551000
   0.08911000  0.85546000  0.05551000
   0.58911000  0.85546000  0.05551000
   0.08911000  0.35546000  0.20047000
   0.58911000  0.35546000  0.20047000
   0.33911000  0.85546000  0.20047000
   0.83911000  0.85546000  0.20047000
   0.83605833  0.35542929  0.34494411
   0.34221748  0.35543046  0.34495178
   0.08859604  0.85543797  0.34663622
   0.58965248  0.85543720  0.34658459
   0.09068690  0.35544886  0.48714686
   0.83774765  0.85544852  0.49301455
Direct configuration=     5
   0.08911000  0.35546000  0.00000000
   0.58911000  0.35546000  0.00000000
   0.33911000  0.04693000  0.05551000
   0.83911000  0.04693000  0.05551000
   0.33911000  0.66399000  0.05551000
   0.83911000  0.66399000  0.05551000
   0.08911000  0.35546000  0.11102000
   0.58911000  0.35546000  0.11102000
   0.58911000  0.85546000  0.14496000
   0.08911000  0.85546000  0.14496000
   0.33911000  0.16399000  0.20047000
   0.83911000  0.16399000  0.20047000
   0.33911000  0.54693000  0.20047000
   0.83911000  0.54693000  0.20047000
   0.08911000  0.85546000  0.25598000
   0.58911000  0.85546000  0.25598000
   0.08920816  0.35540968  0.28948763
   0.58907293  0.35540950  0.28932891
   0.33927203  0.04687067  0.34598306
   0.83898865  0.04695484  0.34593546
   0.33925602  0.66402311  0.34595956
   0.83897527  0.66393875  0.34591231
   0.08930264  0.35571860  0.39974991
   0.58900302  0.35575362  0.39633510
   0.09112298  0.85549160  0.43601954
   0.58714689  0.85549100  0.43586742
   0.33530013  0.16282966  0.49473309
   0.84272232  0.16285340  0.49481760
   0.33531157  0.54808739  0.49472474
   0.84272635  0.54806568  0.49480805
   0.09262590  0.85547913  0.54548280
   0.58549017  0.85548806  0.54532283
   0.34055652  0.85544941  0.49532844
   0.58791903  0.35543050  0.49136545
   0.33911000  0.35546000  0.05551000
   0.83911000  0.35546000  0.05551000
   0.08911000  0.85546000  0.05551000
   0.58911000  0.85546000  0.05551000
   0.08911000  0.35546000  0.20047000
   0.58911000  0.35546000  0.20047000
   0.33911000  0.85546000  0.20047000
   0.83911000  0.85546000  0.20047000
   0.83738421  0.35542910  0.34454236
   0.34088284  0.35543280  0.34453560
   0.08888975  0.85543731  0.34664918
   0.58939035  0.85543600  0.34654135
   0.09038109  0.35544721  0.48706594
   0.83839809  0.85544850  0.49269283
Direct configuration=     6
   0.08911000  0.35546000  0.00000000
   0.58911000  0.35546000  0.00000000
   0.33911000  0.04693000  0.05551000
   0.83911000  0.04693000  0.05551000
   0.33911000  0.66399000  0.05551000
   0.83911000  0.66399000  0.05551000
   0.08911000  0.35546000  0.11102000
   0.58911000  0.35546000  0.11102000
   0.58911000  0.85546000  0.14496000
   0.08911000  0.85546000  0.14496000
   0.33911000  0.16399000  0.20047000
   0.83911000  0.16399000  0.20047000
   0.33911000  0.54693000  0.20047000
   0.83911000  0.54693000  0.20047000
   0.08911000  0.85546000  0.25598000
   0.58911000  0.85546000  0.25598000
   0.08922402  0.35540832  0.28963494
   0.58905508  0.35540633  0.28914808
   0.33939430  0.04678662  0.34598565
   0.83886511  0.04695846  0.34593096
   0.33937591  0.66411286  0.34596110
   0.83885226  0.66394128  0.34590691
   0.08932031  0.35572035  0.39955332
   0.58898551  0.35576819  0.39623754
   0.09146963  0.85549126  0.43615666
   0.58674670  0.85549027  0.43594132
   0.33461098  0.16238440  0.49492370
   0.84341085  0.16258585  0.49498923
   0.33462003  0.54851879  0.49491578
   0.84340975  0.54832537  0.49497924
   0.09333893  0.85547794  0.54535313
   0.58474816  0.85549163  0.54524619
   0.34022729  0.85545214  0.49557581
   0.58803440  0.35543183  0.49191506
   0.33911000  0.35546000  0.05551000
   0.83911000  0.35546000  0.05551000
   0.08911000  0.85546000  0.05551000
   0.58911000  0.85546000  0.05551000
   0.08911000  0.35546000  0.20047000
   0.58911000  0.35546000  0.20047000
   0.33911000  0.85546000  0.20047000
   0.83911000  0.85546000  0.20047000
   0.83854178  0.35542893  0.34419160
   0.33971761  0.35543483  0.34417225
   0.08914618  0.85543673  0.34666050
   0.58916150  0.85543496  0.34650360
   0.09011410  0.35544577  0.48699529
   0.83896597  0.85544849  0.49241196
Direct configuration=     7
   0.08911000  0.35546000  0.00000000
   0.58911000  0.35546000  0.00000000
   0.33911000  0.04693000  0.05551000
   0.83911000  0.04693000  0.05551000
   0.33911000  0.66399000  0.05551000
   0.83911000  0.66399000  0.05551000
   0.08911000  0.35546000  0.11102000
   0.58911000  0.35546000  0.11102000
   0.58911000  0.85546000  0.14496000
   0.08911000  0.85546000  0.14496000
   0.33911000  0.16399000  0.20047000
   0.83911000  0.16399000  0.20047000
   0.33911000  0.54693000  0.20047000
   0.83911000  0.54693000  0.20047000
   0.08911000  0.85546000  0.25598000
   0.58911000  0.85546000  0.25598000
   0.08922748  0.35540802  0.28966711
   0.58905118  0.35540564  0.28910859
   0.33942100  0.04676826  0.34598621
   0.83883813  0.04695925  0.34592998
   0.33940209  0.66413245  0.34596144
   0.83882540  0.66394183  0.34590573
   0.08932417  0.35572073  0.39951039
   0.58898169  0.35577138  0.39621623
   0.09154533  0.85549118  0.43618661
   0.58665931  0.85549011  0.43595746
   0.33446049  0.16228717  0.49496532
   0.84356120  0.16252743  0.49502670
   0.33446902  0.54861299  0.49495750
   0.84355898  0.54838208  0.49501662
   0.09349463  0.85547768  0.54532482
   0.58458613  0.85549241  0.54522945
   0.34015540  0.85545274  0.49562983
   0.58805959  0.35543212  0.49203507
   0.33911000  0.35546000  0.05551000
   0.83911000  0.35546000  0.05551000
   0.08911000  0.85546000  0.05551000
   0.58911000  0.85546000  0.05551000
   0.08911000  0.35546000  0.20047000
   0.58911000  0.35546000  0.20047000
   0.33911000  0.85546000  0.20047000
   0.83911000  0.85546000  0.20047000
   0.83879456  0.35542889  0.34411501
   0.33946317  0.35543528  0.34409290
   0.08920218  0.85543661  0.34666297
   0.58911153  0.85543473  0.34649536
   0.09005580  0.35544546  0.48697986
   0.83908997  0.85544848  0.49235062
Direct configuration=     8
   0.08911000  0.35546000  0.00000000
   0.58911000  0.35546000  0.00000000
   0.33911000  0.04693000  0.05551000
   0.83911000  0.04693000  0.05551000
   0.33911000  0.66399000  0.05551000
   0.83911000  0.66399000  0.05551000
   0.08911000  0.35546000  0.11102000
   0.58911000  0.35546000  0.11102000
   0.58911000  0.85546000  0.14496000
   0.08911000  0.85546000  0.14496000
   0.33911000  0.16399000  0.20047000
   0.83911000  0.16399000  0.20047000
   0.33911000  0.54693000  0.20047000
   0.83911000  0.54693000  0.20047000
   0.08911000  0.85546000  0.25598000
   0.58911000  0.85546000  0.25598000
   0.08920430  0.35540482  0.28948655
   0.58905094  0.35540421  0.28884979
   0.33933815  0.04675377  0.34595800
   0.83893590  0.04688789  0.34590417
   0.33931245  0.66415274  0.34593160
   0.83892660  0.66401322  0.34587816
   0.08932315  0.35572686  0.39923849
   0.58896982  0.35578800  0.39626827
   0.09201888  0.85549104  0.43627235
   0.58637772  0.85548971  0.43603319
   0.33391100  0.16221861  0.49524042
   0.84408006  0.16250872  0.49524639
   0.33391594  0.54866981  0.49523312
   0.84407575  0.54839433  0.49523662
   0.09397545  0.85548010  0.54534858
   0.58423424  0.85549406  0.54521658
   0.33982517  0.85545285  0.49567839
   0.58823053  0.35541626  0.49242777
   0.33911000  0.35546000  0.05551000
   0.83911000  0.35546000  0.05551000
   0.08911000  0.85546000  0.05551000
   0.58911000  0.85546000  0.05551000
   0.08911000  0.35546000  0.20047000
   0.58911000  0.35546000  0.20047000
   0.33911000  0.85546000  0.20047000
   0.83911000  0.85546000  0.20047000
   0.83789172  0.35543383  0.34394871
   0.34038483  0.35543874  0.34394018
   0.08918320  0.85543945  0.34667561
   0.58909051  0.85543812  0.34650207
   0.08975335  0.35543803  0.48692854
   0.83933377  0.85544613  0.49210612
Direct configuration=     9
   0.08911000  0.35546000  0.00000000
   0.58911000  0.35546000  0.00000000
   0.33911000  0.04693000  0.05551000
   0.83911000  0.04693000  0.05551000
   0.33911000  0.66399000  0.05551000
   0.83911000  0.66399000  0.05551000
   0.08911000  0.35546000  0.11102000
   0.58911000  0.35546000  0.11102000
   0.58911000  0.85546000  0.14496000
   0.08911000  0.85546000  0.14496000
   0.33911000  0.16399000  0.20047000
   0.83911000  0.16399000  0.20047000
   0.33911000  0.54693000  0.20047000
   0.83911000  0.54693000  0.20047000
   0.08911000  0.85546000  0.25598000
   0.58911000  0.85546000  0.25598000
   0.08917505  0.35540079  0.28925867
   0.58905064  0.35540241  0.28852316
   0.33923360  0.04673549  0.34592240
   0.83905928  0.04679783  0.34587161
   0.33919932  0.66417835  0.34589394
   0.83905433  0.66410333  0.34584337
   0.08932187  0.35573459  0.39889533
   0.58895484  0.35580899  0.39633395
   0.09261652  0.85549086  0.43638055
   0.58602234  0.85548921  0.43612877
   0.33321751  0.16213209  0.49558761
   0.84473489  0.16248510  0.49552365
   0.33321793  0.54874153  0.49558096
   0.84472794  0.54840980  0.49551427
   0.09458226  0.85548316  0.54537857
   0.58379013  0.85549615  0.54520034
   0.33940842  0.85545299  0.49573967
   0.58844627  0.35539626  0.49292339
   0.33911000  0.35546000  0.05551000
   0.83911000  0.35546000  0.05551000
   0.08911000  0.85546000  0.05551000
   0.58911000  0.85546000  0.05551000
   0.08911000  0.35546000  0.20047000
   0.58911000  0.35546000  0.20047000
   0.33911000  0.85546000  0.20047000
   0.83911000  0.85546000  0.20047000
   0.83675229  0.35544006  0.34373883
   0.34154801  0.35544310  0.34374743
   0.08915926  0.85544305  0.34669156
   0.58906399  0.85544240  0.34651055
   0.08937165  0.35542866  0.48686378
   0.83964145  0.85544315  0.49179755
Direct configuration=    10
   0.08911000  0.35546000  0.00000000
   0.58911000  0.35546000  0.00000000
   0.33911000  0.04693000  0.05551000
   0.83911000  0.04693000  0.05551000
   0.33911000  0.66399000  0.05551000
   0.83911000  0.66399000  0.05551000
   0.08911000  0.35546000  0.11102000
   0.58911000  0.35546000  0.11102000
   0.58911000  0.85546000  0.14496000
   0.08911000  0.85546000  0.14496000
   0.33911000  0.16399000  0.20047000
   0.83911000  0.16399000  0.20047000
   0.33911000  0.54693000  0.20047000
   0.83911000  0.54693000  0.20047000
   0.08911000  0.85546000  0.25598000
   0.58911000  0.85546000  0.25598000
   0.08916377  0.35539767  0.28904333
   0.58904897  0.35540750  0.28840811
   0.33930299  0.04679036  0.34586496
   0.83897327  0.04679660  0.34583039
   0.33926664  0.66413398  0.34583392
   0.83896846  0.66411214  0.34580040
   0.08931448  0.35573658  0.39871622
   0.58898129  0.35583678  0.39648312
   0.09301344  0.85549233  0.43628158
   0.58594742  0.85549037  0.43609128
   0.33295206  0.16246725  0.49592023
   0.84483356  0.16250733  0.49576145
   0.33295834  0.54839719  0.49591136
   0.84482635  0.54836676  0.49575477
   0.09451612  0.85548444  0.54547797
   0.58389845  0.85549718  0.54512381
   0.33948365  0.85544099  0.49576047
   0.58833507  0.35538142  0.49323030
   0.33911000  0.35546000  0.05551000
   0.83911000  0.35546000  0.05551000
   0.08911000  0.85546000  0.05551000
   0.58911000  0.85546000  0.05551000
   0.08911000  0.35546000  0.20047000
   0.58911000  0.35546000  0.20047000
   0.33911000  0.85546000  0.20047000
   0.83911000  0.85546000  0.20047000
   0.83690563  0.35544375  0.34368984
   0.34138737  0.35544408  0.34371863
   0.08919400  0.85544680  0.34668698
   0.58910462  0.85544310  0.34655647
   0.08956042  0.35542261  0.48670537
   0.83942603  0.85543814  0.49192136
Direct configuration=    11
   0.08911000  0.35546000  0.00000000
   0.58911000  0.35546000  0.00000000
   0.33911000  0.04693000  0.05551000
   0.83911000  0.04693000  0.05551000
   0.33911000  0.66399000  0.05551000
   0.83911000  0.66399000  0.05551000
   0.08911000  0.35546000  0.11102000
   0.58911000  0.35546000  0.11102000
   0.58911000  0.85546000  0.14496000
   0.08911000  0.85546000  0.14496000
   0.33911000  0.16399000  0.20047000
   0.83911000  0.16399000  0.20047000
   0.33911000  0.54693000  0.20047000
   0.83911000  0.54693000  0.20047000
   0.08911000  0.85546000  0.25598000
   0.58911000  0.85546000  0.25598000
   0.08915870  0.35539626  0.28894642
   0.58904822  0.35540979  0.28835634
   0.33933422  0.04681506  0.34583911
   0.83893456  0.04679605  0.34581185
   0.33929693  0.66411401  0.34580691
   0.83892981  0.66411611  0.34578106
   0.08931116  0.35573747  0.39863562
   0.58899320  0.35584928  0.39655025
   0.09319208  0.85549299  0.43623704
   0.58591370  0.85549089  0.43607441
   0.33283260  0.16261809  0.49606993
   0.84487797  0.16251733  0.49586848
   0.33284151  0.54824223  0.49606006
   0.84487064  0.54834739  0.49586300
   0.09448635  0.85548502  0.54552271
   0.58394720  0.85549765  0.54508937
   0.33951750  0.85543559  0.49576983
   0.58828503  0.35537475  0.49336842
   0.33911000  0.35546000  0.05551000
   0.83911000  0.35546000  0.05551000
   0.08911000  0.85546000  0.05551000
   0.58911000  0.85546000  0.05551000
   0.08911000  0.35546000  0.20047000
   0.58911000  0.35546000  0.20047000
   0.33911000  0.85546000  0.20047000
   0.83911000  0.85546000  0.20047000
   0.83697463  0.35544541  0.34366779
   0.34131507  0.35544452  0.34370567
   0.08920964  0.85544849  0.34668492
   0.58912291  0.85544341  0.34657714
   0.08964538  0.35541988  0.48663408
   0.83932908  0.85543588  0.49197708
Direct configuration=    12
   0.08911000  0.35546000  0.00000000
   0.58911000  0.35546000  0.00000000
   0.33911000  0.04693000  0.05551000
   0.83911000  0.04693000  0.05551000
   0.33911000  0.66399000  0.05551000
   0.83911000  0.66399000  0.05551000
   0.08911000  0.35546000  0.11102000
   0.58911000  0.35546000  0.11102000
   0.58911000  0.85546000  0.14496000
   0.08911000  0.85546000  0.14496000
   0.33911000  0.16399000  0.20047000
   0.83911000  0.16399000  0.20047000
   0.33911000  0.54693000  0.20047000
   0.83911000  0.54693000  0.20047000
   0.08911000  0.85546000  0.25598000
   0.58911000  0.85546000  0.25598000
   0.08914855  0.35539345  0.28875260
   0.58904673  0.35541437  0.28825278
   0.33939668  0.04686445  0.34578740
   0.83885714  0.04679495  0.34577475
   0.33935753  0.66407407  0.34575289
   0.83885252  0.66412404  0.34574239
   0.08930451  0.35573927  0.39847441
   0.58901700  0.35587430  0.39668451
   0.09354934  0.85549432  0.43614795
   0.58584626  0.85549194  0.43604067
   0.33259367  0.16291976  0.49636931
   0.84496678  0.16253734  0.49608252
   0.33260785  0.54793230  0.49635744
   0.84495921  0.54830864  0.49607947
   0.09442681  0.85548617  0.54561218
   0.58404470  0.85549857  0.54502049
   0.33958522  0.85542479  0.49578855
   0.58818495  0.35536140  0.49364466
   0.33911000  0.35546000  0.05551000
   0.83911000  0.35546000  0.05551000
   0.08911000  0.85546000  0.05551000
   0.58911000  0.85546000  0.05551000
   0.08911000  0.35546000  0.20047000
   0.58911000  0.35546000  0.20047000
   0.33911000  0.85546000  0.20047000
   0.83911000  0.85546000  0.20047000
   0.83711265  0.35544872  0.34362369
   0.34117049  0.35544540  0.34367975
   0.08924091  0.85545186  0.34668080
   0.58915948  0.85544404  0.34661847
   0.08981530  0.35541443  0.48649149
   0.83913519  0.85543137  0.49208851
Direct configuration=    13
   0.08911000  0.35546000  0.00000000
   0.58911000  0.35546000  0.00000000
   0.33911000  0.04693000  0.05551000
   0.83911000  0.04693000  0.05551000
   0.33911000  0.66399000  0.05551000
   0.83911000  0.66399000  0.05551000
   0.08911000  0.35546000  0.11102000
   0.58911000  0.35546000  0.11102000
   0.58911000  0.85546000  0.14496000
   0.08911000  0.85546000  0.14496000
   0.33911000  0.16399000  0.20047000
   0.83911000  0.16399000  0.20047000
   0.33911000  0.54693000  0.20047000
   0.83911000  0.54693000  0.20047000
   0.08911000  0.85546000  0.25598000
   0.58911000  0.85546000  0.25598000
   0.08917431  0.35539492  0.28879597
   0.58901356  0.35541898  0.28850335
   0.33948880  0.04688335  0.34571703
   0.83885044  0.04686944  0.34573765
   0.33944334  0.66406081  0.34568211
   0.83884752  0.66405903  0.34570082
   0.08924833  0.35574367  0.39844132
   0.58904336  0.35591237  0.39678741
   0.09348544  0.85549653  0.43615166
   0.58592635  0.85549428  0.43604520
   0.33282269  0.16320538  0.49674329
   0.84474373  0.16269005  0.49629254
   0.33284242  0.54763614  0.49672676
   0.84473223  0.54813900  0.49629058
   0.09407008  0.85548534  0.54570719
   0.58433803  0.85549675  0.54501109
   0.33918806  0.85541144  0.49580668
   0.58812430  0.35534353  0.49382101
   0.33911000  0.35546000  0.05551000
   0.83911000  0.35546000  0.05551000
   0.08911000  0.85546000  0.05551000
   0.58911000  0.85546000  0.05551000
   0.08911000  0.35546000  0.20047000
   0.58911000  0.35546000  0.20047000
   0.33911000  0.85546000  0.20047000
   0.83911000  0.85546000  0.20047000
   0.83703377  0.35544966  0.34360370
   0.34122387  0.35545355  0.34363487
   0.08933783  0.85545731  0.34658241
   0.58910548  0.85544846  0.34655166
   0.08965939  0.35540668  0.48644186
   0.83968224  0.85541653  0.49225127
Direct configuration=    14
   0.08911000  0.35546000  0.00000000
   0.58911000  0.35546000  0.00000000
   0.33911000  0.04693000  0.05551000
   0.83911000  0.04693000  0.05551000
   0.33911000  0.66399000  0.05551000
   0.83911000  0.66399000  0.05551000
   0.08911000  0.35546000  0.11102000
   0.58911000  0.35546000  0.11102000
   0.58911000  0.85546000  0.14496000
   0.08911000  0.85546000  0.14496000
   0.33911000  0.16399000  0.20047000
   0.83911000  0.16399000  0.20047000
   0.33911000  0.54693000  0.20047000
   0.83911000  0.54693000  0.20047000
   0.08911000  0.85546000  0.25598000
   0.58911000  0.85546000  0.25598000
   0.08919648  0.35539619  0.28883328
   0.58898502  0.35542296  0.28871890
   0.33956806  0.04689961  0.34565649
   0.83884469  0.04693353  0.34570573
   0.33951716  0.66404941  0.34562121
   0.83884321  0.66400309  0.34566506
   0.08920000  0.35574745  0.39841285
   0.58906603  0.35594513  0.39687593
   0.09343047  0.85549844  0.43615484
   0.58599526  0.85549630  0.43604910
   0.33301971  0.16345109  0.49706502
   0.84455185  0.16282142  0.49647321
   0.33304420  0.54738135  0.49704447
   0.84453697  0.54799305  0.49647219
   0.09376319  0.85548463  0.54578892
   0.58459038  0.85549518  0.54500301
   0.33884640  0.85539996  0.49582227
   0.58807213  0.35532815  0.49397272
   0.33911000  0.35546000  0.05551000
   0.83911000  0.35546000  0.05551000
   0.08911000  0.85546000  0.05551000
   0.58911000  0.85546000  0.05551000
   0.08911000  0.35546000  0.20047000
   0.58911000  0.35546000  0.20047000
   0.33911000  0.85546000  0.20047000
   0.83911000  0.85546000  0.20047000
   0.83696591  0.35545046  0.34358651
   0.34126980  0.35546057  0.34359627
   0.08942120  0.85546200  0.34649776
   0.58905904  0.85545227  0.34649419
   0.08952528  0.35540001  0.48639916
   0.84015286  0.85540376  0.49239128
Direct configuration=    15
   0.08911000  0.35546000  0.00000000
   0.58911000  0.35546000  0.00000000
   0.33911000  0.04693000  0.05551000
   0.83911000  0.04693000  0.05551000
   0.33911000  0.66399000  0.05551000
   0.83911000  0.66399000  0.05551000
   0.08911000  0.35546000  0.11102000
   0.58911000  0.35546000  0.11102000
   0.58911000  0.85546000  0.14496000
   0.08911000  0.85546000  0.14496000
   0.33911000  0.16399000  0.20047000
   0.83911000  0.16399000  0.20047000
   0.33911000  0.54693000  0.20047000
   0.83911000  0.54693000  0.20047000
   0.08911000  0.85546000  0.25598000
   0.58911000  0.85546000  0.25598000
   0.08919186  0.35539912  0.28895068
   0.58898620  0.35542421  0.28880732
   0.33965419  0.04692098  0.34556150
   0.83885762  0.04693874  0.34565654
   0.33960194  0.66404734  0.34552213
   0.83885715  0.66401349  0.34561047
   0.08914316  0.35575374  0.39846601
   0.58904919  0.35600174  0.39691935
   0.09330649  0.85549985  0.43621786
   0.58624039  0.85549840  0.43613211
   0.33321075  0.16369378  0.49753415
   0.84436485  0.16300866  0.49669537
   0.33323723  0.54709884  0.49751077
   0.84434197  0.54777551  0.49669305
   0.09337754  0.85548520  0.54597723
   0.58474027  0.85548805  0.54500299
   0.33918229  0.85539032  0.49587114
   0.58797249  0.35531026  0.49410457
   0.33911000  0.35546000  0.05551000
   0.83911000  0.35546000  0.05551000
   0.08911000  0.85546000  0.05551000
   0.58911000  0.85546000  0.05551000
   0.08911000  0.35546000  0.20047000
   0.58911000  0.35546000  0.20047000
   0.33911000  0.85546000  0.20047000
   0.83911000  0.85546000  0.20047000
   0.83697173  0.35545840  0.34377879
   0.34129565  0.35546873  0.34378083
   0.08930048  0.85546789  0.34645028
   0.58927076  0.85545774  0.34648404
   0.08949493  0.35538765  0.48652609
   0.83989153  0.85538784  0.49241671
Direct configuration=    16
   0.08911000  0.35546000  0.00000000
   0.58911000  0.35546000  0.00000000
   0.33911000  0.04693000  0.05551000
   0.83911000  0.04693000  0.05551000
   0.33911000  0.66399000  0.05551000
   0.83911000  0.66399000  0.05551000
   0.08911000  0.35546000  0.11102000
   0.58911000  0.35546000  0.11102000
   0.58911000  0.85546000  0.14496000
   0.08911000  0.85546000  0.14496000
   0.33911000  0.16399000  0.20047000
   0.83911000  0.16399000  0.20047000
   0.33911000  0.54693000  0.20047000
   0.83911000  0.54693000  0.20047000
   0.08911000  0.85546000  0.25598000
   0.58911000  0.85546000  0.25598000
   0.08918921  0.35540081  0.28901809
   0.58898687  0.35542494  0.28885809
   0.33970365  0.04693324  0.34550697
   0.83886504  0.04694172  0.34562829
   0.33965061  0.66404615  0.34546524
   0.83886515  0.66401947  0.34557913
   0.08911052  0.35575736  0.39849653
   0.58903952  0.35603425  0.39694427
   0.09323531  0.85550067  0.43625405
   0.58638113  0.85549960  0.43617978
   0.33332043  0.16383311  0.49780349
   0.84425749  0.16311617  0.49682292
   0.33334806  0.54693664  0.49777848
   0.84423002  0.54765061  0.49681986
   0.09315613  0.85548554  0.54608534
   0.58482632  0.85548396  0.54500298
   0.33937514  0.85538478  0.49589920
   0.58791528  0.35529999  0.49418027
   0.33911000  0.35546000  0.05551000
   0.83911000  0.35546000  0.05551000
   0.08911000  0.85546000  0.05551000
   0.58911000  0.85546000  0.05551000
   0.08911000  0.35546000  0.20047000
   0.58911000  0.35546000  0.20047000
   0.33911000  0.85546000  0.20047000
   0.83911000  0.85546000  0.20047000
   0.83697507  0.35546296  0.34388918
   0.34131049  0.35547342  0.34388679
   0.08923117  0.85547127  0.34642302
   0.58939232  0.85546088  0.34647822
   0.08947751  0.35538055  0.48659897
   0.83974150  0.85537871  0.49243131
Direct configuration=    17
   0.08911000  0.35546000  0.00000000
   0.58911000  0.35546000  0.00000000
   0.33911000  0.04693000  0.05551000