       N       E                     dE             d eps       ncg     rms          rms(c)
DAV:   1     0.358394548725E+04    0.35839E+04   -0.15471E+05  9128   0.133E+03
DAV:   2     0.151997067944E+03   -0.34319E+04   -0.31362E+04  9560   0.378E+02
DAV:   3    -0.360263854897E+03   -0.51226E+03   -0.48723E+03 11224   0.160E+02
DAV:   4    -0.383672975634E+03   -0.23409E+02   -0.22990E+02 11272   0.367E+01
DAV:   5    -0.384283719805E+03   -0.61074E+00   -0.60875E+00 11224   0.571E+00    0.131E+02
RMM:   6    -0.299960904123E+03    0.84323E+02   -0.37772E+02  9139   0.393E+01    0.870E+01
RMM:   7    -0.535798157151E+03   -0.23584E+03   -0.13143E+02  9358   0.191E+01    0.207E+02
RMM:   8    -0.361687834712E+03    0.17411E+03   -0.16285E+01  9124   0.981E+00    0.129E+02
RMM:   9    -0.374975447721E+03   -0.13288E+02   -0.41106E+01  9122   0.127E+01    0.121E+02
RMM:  10    -0.322475367244E+03    0.52500E+02   -0.32167E+01  9127   0.114E+01    0.792E+01
RMM:  11    -0.286950204346E+03    0.35525E+02   -0.11782E+01  9122   0.686E+00    0.315E+01
RMM:  12    -0.296592081648E+03   -0.96419E+01   -0.96277E+00  9121   0.670E+00    0.317E+01
RMM:  13    -0.292114239305E+03    0.44778E+01   -0.27697E+00  9129   0.353E+00    0.194E+01
RMM:  14    -0.294208726560E+03   -0.20945E+01   -0.82347E-01  9120   0.198E+00    0.172E+01
RMM:  15    -0.298238618246E+03   -0.40299E+01   -0.85262E-01  9120   0.189E+00    0.190E+01
RMM:  16    -0.304019185235E+03   -0.57806E+01   -0.24343E+00  9120   0.311E+00    0.130E+01
RMM:  17    -0.314276784984E+03   -0.10258E+02   -0.69991E+00  9120   0.499E+00    0.903E+00
RMM:  18    -0.320319493248E+03   -0.60427E+01   -0.48860E+00  9120   0.380E+00    0.913E+00
RMM:  19    -0.321931063573E+03   -0.16116E+01   -0.12156E+00  9134   0.191E+00    0.754E+00
RMM:  20    -0.323770076863E+03   -0.18390E+01   -0.11839E+00  9120   0.184E+00    0.726E+00
RMM:  21    -0.325516634070E+03   -0.17466E+01   -0.70016E-01  9120   0.143E+00    0.527E+00
RMM:  22    -0.326377476996E+03   -0.86084E+00   -0.36042E-01  9120   0.947E-01    0.483E+00
RMM:  23    -0.326725048515E+03   -0.34757E+00   -0.16268E-01  9128   0.658E-01    0.357E+00
RMM:  24    -0.326874342162E+03   -0.14929E+00   -0.81246E-02  9123   0.500E-01    0.314E+00
RMM:  25    -0.326968074355E+03   -0.93732E-01   -0.11685E-01  9120   0.592E-01    0.332E+00
RMM:  26    -0.326959392853E+03    0.86815E-02   -0.32105E-02  9174   0.340E-01    0.253E+00
RMM:  27    -0.326997878936E+03   -0.38486E-01   -0.19199E-02  9128   0.271E-01    0.196E+00
RMM:  28    -0.327036578754E+03   -0.38700E-01   -0.77784E-03  9126   0.162E-01    0.164E+00
RMM:  29    -0.327076263649E+03   -0.39685E-01   -0.98320E-03  9121   0.183E-01    0.131E+00
RMM:  30    -0.327100277538E+03   -0.24014E-01   -0.24396E-03  8958   0.933E-02    0.122E+00
RMM:  31    -0.327121408834E+03   -0.21131E-01   -0.10831E-03  8437   0.668E-02    0.988E-01
RMM:  32    -0.327144206406E+03   -0.22798E-01   -0.13514E-03  8672   0.750E-02    0.812E-01
RMM:  33    -0.327160312543E+03   -0.16106E-01   -0.41282E-04  6594   0.376E-02    0.695E-01
RMM:  34    -0.327170262557E+03   -0.99500E-02   -0.28316E-04  6077   0.316E-02    0.553E-01
RMM:  35    -0.327181896520E+03   -0.11634E-01   -0.31033E-04  6197   0.317E-02    0.439E-01
RMM:  36    -0.327190033808E+03   -0.81373E-02   -0.29366E-04  6127   0.316E-02    0.314E-01
RMM:  37    -0.327194379869E+03   -0.43461E-02   -0.18483E-04  5713   0.255E-02    0.225E-01
RMM:  38    -0.327199354044E+03   -0.49742E-02   -0.30457E-04  6120   0.287E-02    0.120E-01
RMM:  39    -0.327201095670E+03   -0.17416E-02   -0.14996E-04  5667   0.212E-02    0.718E-02
RMM:  40    -0.327201937415E+03   -0.84175E-03   -0.14907E-04  5682   0.193E-02    0.472E-02
RMM:  41    -0.327202190138E+03   -0.25272E-03   -0.38449E-05  4950   0.130E-02    0.369E-02
RMM:  42    -0.327202063880E+03    0.12626E-03   -0.28139E-05  4701   0.987E-03    0.403E-02
RMM:  43    -0.327202267724E+03   -0.20384E-03   -0.12025E-05  4120   0.795E-03    0.304E-02
RMM:  44    -0.327202331756E+03   -0.64031E-04   -0.47252E-06  3103   0.535E-03
   1 F= -.33693254E+03 E0= -.33691253E+03  d E =-.336933E+03  mag=     1.4981
       N       E                     dE             d eps       ncg     rms          rms(c)
DAV:   1    -0.327336836018E+03   -0.13457E+00   -0.82191E+00  9556   0.548E+00    0.128E+00
RMM:   2    -0.327442295655E+03   -0.10546E+00   -0.27534E-01  9029   0.105E+00    0.478E+00
RMM:   3    -0.327357409650E+03    0.84886E-01   -0.24680E-02  8829   0.345E-01    0.185E+00
RMM:   4    -0.327360859568E+03   -0.34499E-02   -0.40040E-03  8542   0.121E-01    0.204E+00
RMM:   5    -0.327379154360E+03   -0.18295E-01   -0.37478E-03  8879   0.117E-01    0.279E+00
RMM:   6    -0.327360658008E+03    0.18496E-01   -0.70344E-03  9114   0.161E-01    0.168E+00
RMM:   7    -0.327352924628E+03    0.77334E-02   -0.65111E-03  9120   0.151E-01    0.110E+00
RMM:   8    -0.327345989780E+03    0.69348E-02   -0.33553E-03  8881   0.107E-01    0.470E-01
RMM:   9    -0.327345037446E+03    0.95233E-03   -0.79485E-04  7757   0.582E-02    0.280E-01
RMM:  10    -0.327345044276E+03   -0.68297E-05   -0.17952E-04  5617   0.306E-02
   2 F= -.33707239E+03 E0= -.33705292E+03  d E =-.139851E+00  mag=     1.4965
       N       E                     dE             d eps       ncg     rms          rms(c)
DAV:   1    -0.327446812226E+03   -0.10177E+00   -0.22513E+01  9216   0.910E+00    0.193E+00
RMM:   2    -0.327661371509E+03   -0.21456E+00   -0.68738E-01  9075   0.171E+00    0.642E+00
RMM:   3    -0.327499034558E+03    0.16234E+00   -0.54376E-02  8930   0.530E-01    0.258E+00
RMM:   4    -0.327521631295E+03   -0.22597E-01   -0.11656E-02  8949   0.203E-01    0.329E+00
RMM:   5    -0.327525335596E+03   -0.37043E-02   -0.73227E-03  9122   0.167E-01    0.344E+00
RMM:   6    -0.327510149041E+03    0.15187E-01   -0.17446E-02  9120   0.246E-01    0.254E+00
RMM:   7    -0.327493649780E+03    0.16499E-01   -0.17900E-02  9120   0.237E-01    0.165E+00
RMM:   8    -0.327477425581E+03    0.16224E-01   -0.68962E-03  9120   0.157E-01    0.723E-01
RMM:   9    -0.327474886756E+03    0.25388E-02   -0.19742E-03  8593   0.894E-02    0.449E-01
RMM:  10    -0.327474359762E+03    0.52699E-03   -0.42444E-04  6921   0.452E-02    0.309E-01
RMM:  11    -0.327474248551E+03    0.11121E-03   -0.16399E-04  5607   0.287E-02    0.238E-01
RMM:  12    -0.327474188712E+03    0.59839E-04   -0.15389E-04  5578   0.269E-02
   3 F= -.33719678E+03 E0= -.33717757E+03  d E =-.264246E+00  mag=     1.4738
       N       E                     dE             d eps       ncg     rms          rms(c)
DAV:   1    -0.327484044854E+03   -0.97963E-02   -0.41070E+00  9536   0.391E+00    0.815E-01
RMM:   2    -0.327517229988E+03   -0.33185E-01   -0.12180E-01  9010   0.730E-01    0.234E+00
RMM:   3    -0.327493457140E+03    0.23773E-01   -0.88123E-03  8704   0.218E-01    0.104E+00
RMM:   4    -0.327504350754E+03   -0.10894E-01   -0.24706E-03  8619   0.921E-02    0.159E+00
RMM:   5    -0.327495675561E+03    0.86752E-02   -0.13640E-03  8482   0.757E-02    0.111E+00
RMM:   6    -0.327495695365E+03   -0.19804E-04   -0.36286E-03  8910   0.111E-01    0.102E+00
RMM:   7    -0.327491345460E+03    0.43499E-02   -0.25670E-03  8673   0.906E-02    0.510E-01
RMM:   8    -0.327489738248E+03    0.16072E-02   -0.90751E-04  8059   0.596E-02    0.189E-01
RMM:   9    -0.327489586524E+03    0.15172E-03   -0.22899E-04  5791   0.314E-02    0.102E-01
RMM:  10    -0.327489616413E+03   -0.29889E-04   -0.52021E-05  4916   0.213E-02
   4 F= -.33721018E+03 E0= -.33719039E+03  d E =-.277640E+00  mag=     1.4598
       N       E                     dE             d eps       ncg     rms          rms(c)
DAV:   1    -0.327528288779E+03   -0.38702E-01   -0.49882E+00  9248   0.414E+00    0.767E-01
RMM:   2    -0.327566683396E+03   -0.38395E-01   -0.12567E-01  9070   0.778E-01    0.245E+00
RMM:   3    -0.327542250669E+03    0.24433E-01   -0.80870E-03  8985   0.234E-01    0.107E+00
RMM:   4    -0.327542786411E+03   -0.53574E-03   -0.30870E-03  8728   0.104E-01    0.112E+00
RMM:   5    -0.327539845124E+03    0.29413E-02   -0.32277E-03  8724   0.107E-01    0.929E-01
RMM:   6    -0.327537846394E+03    0.19987E-02   -0.23877E-03  8590   0.884E-02    0.641E-01
RMM:   7    -0.327536465089E+03    0.13813E-02   -0.19017E-03  8448   0.777E-02    0.421E-01
RMM:   8    -0.327535672630E+03    0.79246E-03   -0.71336E-04  7878   0.539E-02    0.234E-01
RMM:   9    -0.327535388482E+03    0.28415E-03   -0.18308E-04  5565   0.311E-02    0.105E-01
RMM:  10    -0.327535393545E+03   -0.50626E-05   -0.49484E-05  4878   0.213E-02
   5 F= -.33725447E+03 E0= -.33723453E+03  d E =-.442979E-01  mag=     1.4624
       N       E                     dE             d eps       ncg     rms          rms(c)
DAV:   1    -0.327546957350E+03   -0.11569E-01   -0.38010E+00  9240   0.361E+00    0.671E-01
RMM:   2    -0.327574755676E+03   -0.27798E-01   -0.97551E-02  9044   0.684E-01    0.205E+00
RMM:   3    -0.327557498274E+03    0.17257E-01   -0.65389E-03  8952   0.208E-01    0.931E-01
RMM:   4    -0.327557881386E+03   -0.38311E-03   -0.22577E-03  8644   0.896E-02    0.976E-01
RMM:   5    -0.327555290739E+03    0.25906E-02   -0.23671E-03  8603   0.919E-02    0.793E-01
RMM:   6    -0.327553885414E+03    0.14053E-02   -0.16742E-03  8391   0.741E-02    0.574E-01
RMM:   7    -0.327552737076E+03    0.11483E-02   -0.14873E-03  8359   0.694E-02    0.360E-01
RMM:   8    -0.327552167079E+03    0.57000E-03   -0.56419E-04  7571   0.481E-02    0.192E-01
RMM:   9    -0.327552013266E+03    0.15381E-03   -0.14752E-04  5325   0.288E-02    0.856E-02
RMM:  10    -0.327552030202E+03   -0.16936E-04   -0.37123E-05  4786   0.187E-02
   6 F= -.33726981E+03 E0= -.33724969E+03  d E =-.596331E-01  mag=     1.4837
       N       E                     dE             d eps       ncg     rms          rms(c)
DAV:   1    -0.327552665805E+03   -0.65254E-03   -0.18101E-01  9552   0.789E-01    0.153E-01
RMM:   2    -0.327554045148E+03   -0.13793E-02   -0.48861E-03  8728   0.152E-01    0.448E-01
RMM:   3    -0.327553203377E+03    0.84177E-03   -0.32266E-04  6352   0.476E-02    0.211E-01
RMM:   4    -0.327553154714E+03    0.48664E-04   -0.12093E-04  5249   0.268E-02
   7 F= -.33727065E+03 E0= -.33725044E+03  d E =-.604721E-01  mag=     1.4926
       N       E                     dE             d eps       ncg     rms          rms(c)
DAV:   1    -0.327565265322E+03   -0.12062E-01   -0.25349E+00  9224   0.317E+00    0.461E-01
RMM:   2    -0.327590897778E+03   -0.25632E-01   -0.60730E-02  9029   0.558E-01    0.188E+00
RMM:   3    -0.327571272995E+03    0.19625E-01   -0.42031E-03  8955   0.167E-01    0.581E-01
RMM:   4    -0.327570896365E+03    0.37663E-03   -0.13019E-03  8431   0.750E-02    0.570E-01
RMM:   5    -0.327570337145E+03    0.55922E-03   -0.66967E-04  8057   0.530E-02    0.472E-01
RMM:   6    -0.327569857890E+03    0.47926E-03   -0.91847E-04  8246   0.588E-02    0.422E-01
RMM:   7    -0.327569150523E+03    0.70737E-03   -0.98484E-04  7820   0.551E-02    0.193E-01
RMM:   8    -0.327568966790E+03    0.18373E-03   -0.21885E-04  5833   0.324E-02    0.119E-01
RMM:   9    -0.327568975246E+03   -0.84559E-05   -0.63005E-05  4965   0.217E-02
   8 F= -.33728541E+03 E0= -.33726532E+03  d E =-.147582E-01  mag=     1.5234
       N       E                     dE             d eps       ncg     rms          rms(c)
DAV:   1    -0.327570252704E+03   -0.12859E-02   -0.40347E+00  9160   0.400E+00    0.532E-01
RMM:   2    -0.327604332267E+03   -0.34080E-01   -0.99020E-02  9074   0.710E-01    0.222E+00
RMM:   3    -0.327580675943E+03    0.23656E-01   -0.65084E-03  9031   0.205E-01    0.748E-01
RMM:   4    -0.327579059867E+03    0.16161E-02   -0.19473E-03  8501   0.874E-02    0.658E-01
RMM:   5    -0.327578506748E+03    0.55312E-03   -0.10491E-03  8325   0.648E-02    0.620E-01
RMM:   6    -0.327578315493E+03    0.19126E-03   -0.84617E-04  8302   0.580E-02    0.537E-01
RMM:   7    -0.327577638035E+03    0.67746E-03   -0.12778E-03  8353   0.646E-02    0.338E-01
RMM:   8    -0.327577075926E+03    0.56211E-03   -0.40333E-04  6896   0.419E-02    0.182E-01
RMM:   9    -0.327577027052E+03    0.48873E-04   -0.12480E-04  5281   0.272E-02
   9 F= -.33729211E+03 E0= -.33727212E+03  d E =-.214658E-01  mag=     1.5538
       N       E                     dE             d eps       ncg     rms          rms(c)
DAV:   1    -0.327582564844E+03   -0.54889E-02   -0.18194E+00  9168   0.277E+00    0.262E-01
RMM:   2    -0.327587485904E+03   -0.49211E-02   -0.40743E-02  8973   0.452E-01    0.502E-01
RMM:   3    -0.327586980270E+03    0.50563E-03   -0.19617E-03  8495   0.118E-01    0.335E-01
RMM:   4    -0.327586993085E+03   -0.12815E-04   -0.42981E-04  6980   0.431E-02
  10 F= -.33730040E+03 E0= -.33728044E+03  d E =-.829003E-02  mag=     1.5656
       N       E                     dE             d eps       ncg     rms          rms(c)
DAV:   1    -0.327588616226E+03   -0.16360E-02   -0.36708E-01  9376   0.125E+00    0.302E-01
RMM:   2    -0.327596929416E+03   -0.83132E-02   -0.93995E-03  8962   0.216E-01    0.102E+00
RMM:   3    -0.327591258528E+03    0.56709E-02   -0.16926E-03  8566   0.852E-02    0.609E-01
RMM:   4    -0.327589332366E+03    0.19262E-02   -0.40224E-04  6946   0.477E-02    0.312E-01
RMM:   5    -0.327588971839E+03    0.36053E-03   -0.25511E-04  6027   0.354E-02    0.241E-01
RMM:   6    -0.327588727833E+03    0.24401E-03   -0.28462E-04  5991   0.352E-02    0.905E-02
RMM:   7    -0.327588850806E+03   -0.12297E-03   -0.91368E-05  5111   0.218E-02    0.933E-02
RMM:   8    -0.327588898029E+03   -0.47224E-04   -0.35333E-05  4774   0.155E-02
  11 F= -.33730155E+03 E0= -.33728166E+03  d E =-.944042E-02  mag=     1.5981
       N       E                     dE             d eps       ncg     rms          rms(c)
DAV:   1    -0.327589591971E+03   -0.74117E-03   -0.14729E+00  9136   0.250E+00    0.237E-01
RMM:   2    -0.327594925003E+03   -0.53330E-02   -0.33128E-02  8974   0.406E-01    0.649E-01
RMM:   3    -0.327593094881E+03    0.18301E-02   -0.15927E-03  8403   0.108E-01    0.295E-01
RMM:   4    -0.327592981040E+03    0.11384E-03   -0.38234E-04  6647   0.411E-02    0.286E-01
RMM:   5    -0.327592823033E+03    0.15801E-03   -0.18831E-04  5657   0.321E-02    0.258E-01
RMM:   6    -0.327592857437E+03   -0.34405E-04   -0.15624E-04  5424   0.291E-02
  12 F= -.33730400E+03 E0= -.33728423E+03  d E =-.118902E-01  mag=     1.6215
       N       E                     dE             d eps       ncg     rms          rms(c)
DAV:   1    -0.327596584585E+03   -0.37616E-02   -0.16485E+00  9120   0.264E+00    0.324E-01
RMM:   2    -0.327601429388E+03   -0.48448E-02   -0.36500E-02  9055   0.413E-01    0.536E-01
RMM:   3    -0.327600478796E+03    0.95059E-03   -0.23238E-03  8719   0.126E-01    0.430E-01
RMM:   4    -0.327600113894E+03    0.36490E-03   -0.50699E-04  7191   0.452E-02    0.367E-01
RMM:   5    -0.327599517819E+03    0.59608E-03   -0.15714E-04  5480   0.314E-02    0.223E-01
RMM:   6    -0.327599276778E+03    0.24104E-03   -0.22004E-04  5983   0.358E-02    0.192E-01
RMM:   7    -0.327599146543E+03    0.13024E-03   -0.27980E-04  6151   0.371E-02    0.141E-01
RMM:   8    -0.327599046799E+03    0.99744E-04   -0.15782E-04  5362   0.276E-02
  13 F= -.33730830E+03 E0= -.33728849E+03  d E =-.429508E-02  mag=     1.6555
       N       E                     dE             d eps       ncg     rms          rms(c)
DAV:   1    -0.327599641442E+03   -0.49490E-03   -0.12237E+00  9168   0.228E+00    0.254E-01
RMM:   2    -0.327604233705E+03   -0.45923E-02   -0.26179E-02  8953   0.349E-01    0.584E-01
RMM:   3    -0.327602726925E+03    0.15068E-02   -0.13867E-03  8359   0.102E-01    0.367E-01
RMM:   4    -0.327602067266E+03    0.65966E-03   -0.40057E-04  6780   0.425E-02    0.199E-01
RMM:   5    -0.327601952108E+03    0.11516E-03   -0.12015E-04  5251   0.296E-02    0.161E-01
RMM:   6    -0.327601946981E+03    0.51267E-05   -0.19410E-04  5651   0.298E-02
  14 F= -.33730957E+03 E0= -.33729001E+03  d E =-.556632E-02  mag=     1.6813
       N       E                     dE             d eps       ncg     rms          rms(c)
DAV:   1    -0.327604037713E+03   -0.20856E-02   -0.21185E+00  9136   0.297E+00    0.330E-01
RMM:   2    -0.327611169631E+03   -0.71319E-02   -0.43613E-02  9035   0.432E-01    0.735E-01
RMM:   3    -0.327609674588E+03    0.14950E-02   -0.22595E-03  8850   0.131E-01    0.548E-01
RMM:   4    -0.327608178124E+03    0.14965E-02   -0.88168E-04  7997   0.598E-02    0.307E-01
RMM:   5    -0.327607650817E+03    0.52731E-03   -0.31657E-04  6500   0.374E-02    0.142E-01
RMM:   6    -0.327607810179E+03   -0.15936E-03   -0.34357E-04  6512   0.352E-02    0.212E-01
RMM:   7    -0.327607717581E+03    0.92598E-04   -0.18689E-04  5650   0.298E-02
  15 F= -.33731283E+03 E0= -.33729329E+03  d E =-.325829E-02  mag=     1.7046
       N       E                     dE             d eps       ncg     rms          rms(c)
DAV:   1    -0.327608379626E+03   -0.56945E-03   -0.69610E-01  9264   0.170E+00    0.184E-01
RMM:   2    -0.327611629937E+03   -0.32503E-02   -0.14149E-02  9040   0.248E-01    0.536E-01
RMM:   3    -0.327610101043E+03    0.15289E-02   -0.73737E-04  7855   0.756E-02    0.280E-01
RMM:   4    -0.327609977623E+03    0.12342E-03   -0.21736E-04  5950   0.338E-02    0.223E-01
RMM:   5    -0.327609778582E+03    0.19904E-03   -0.93682E-05  5141   0.269E-02    0.114E-01
RMM:   6    -0.327609854855E+03   -0.76274E-04   -0.92714E-05  5133   0.231E-02
  16 F= -.33731352E+03 E0= -.33729388E+03  d E =-.395346E-02  mag=     1.7182
       N       E                     dE             d eps       ncg     rms          rms(c)
DAV:   1    -0.327612908996E+03   -0.31304E-02   -0.21057E+00  9144   0.293E+00    0.276E-01
RMM:   2    -0.327617884604E+03   -0.49756E-02   -0.42074E-02  8968   0.435E-01    0.487E-01
RMM:   3    -0.327617887269E+03   -0.26650E-05   -0.20194E-03  8518   0.121E-01    0.462E-01
RMM:   4    -0.327616883536E+03    0.10037E-02   -0.38823E-04  6870   0.438E-02    0.257E-01
RMM:   5    -0.327616575521E+03    0.30801E-03   -0.25357E-04  6210   0.383E-02    0.272E-01
RMM:   6    -0.327616286207E+03    0.28931E-03   -0.13843E-04  5333   0.294E-02    0.172E-01
RMM:   7    -0.327616037123E+03    0.24908E-03   -0.33223E-04  6347   0.355E-02    0.998E-02
RMM:   8    -0.327616089203E+03   -0.52079E-04   -0.10591E-04  5080   0.244E-02
  17 F= -.33731634E+03 E0= -.33729682E+03  d E =-.281893E-02  mag=     1.7415
       N       E                     dE             d eps       ncg     rms          rms(c)
DAV:   1    -0.327615638589E+03    0.39853E-03   -0.37097E+00  9136   0.389E+00    0.369E-01
RMM:   2    -0.327626148709E+03   -0.10510E-01   -0.75927E-02  8982   0.582E-01    0.822E-01
RMM:   3    -0.327624197792E+03    0.19509E-02   -0.38431E-03  8776   0.165E-01    0.567E-01
RMM:   4    -0.327622936425E+03    0.12614E-02   -0.75749E-04  7995   0.587E-02    0.350E-01
RMM:   5    -0.327622438168E+03    0.49826E-03   -0.53828E-04  7537   0.470E-02    0.366E-01
RMM:   6    -0.327621938345E+03    0.49982E-03   -0.18001E-04  5621   0.314E-02    0.246E-01
RMM:   7    -0.327621630684E+03    0.30766E-03   -0.49837E-04  7267   0.453E-02    0.176E-01
RMM:   8    -0.327621542373E+03    0.88311E-04   -0.24951E-04  5974   0.355E-02
  18 F= -.33731727E+03 E0= -.33729775E+03  d E =-.374778E-02  mag=     1.7691
       N       E                     dE             d eps       ncg     rms          rms(c)
DAV:   1    -0.327623074758E+03   -0.14441E-02   -0.26811E+00  9144   0.329E+00    0.346E-01
RMM:   2    -0.327630782631E+03   -0.77079E-02   -0.55481E-02  8985   0.512E-01    0.661E-01
RMM:   3    -0.327629415124E+03    0.13675E-02   -0.26339E-03  8868   0.139E-01    0.415E-01
RMM:   4    -0.327629779474E+03   -0.36435E-03   -0.10418E-03  8122   0.627E-02    0.472E-01
RMM:   5    -0.327628674029E+03    0.11054E-02   -0.51125E-04  7145   0.445E-02    0.229E-01
RMM:   6    -0.327628765038E+03   -0.91009E-04   -0.30750E-04  6318   0.339E-02
  19 F= -.33732078E+03 E0= -.33730154E+03  d E =-.351301E-02  mag=     1.7834
       N       E                     dE             d eps       ncg     rms          rms(c)
DAV:   1    -0.327629026229E+03   -0.35220E-03   -0.28224E-03 10676   0.139E-01    0.146E-01
RMM:   2    -0.327631717545E+03   -0.26913E-02   -0.12508E-03  8195   0.710E-02    0.604E-01
RMM:   3    -0.327629492082E+03    0.22255E-02   -0.50073E-04  7449   0.462E-02    0.224E-01
RMM:   4    -0.327629147198E+03    0.34488E-03   -0.59899E-05  5005   0.219E-02    0.750E-02
RMM:   5    -0.327629171501E+03   -0.24303E-04   -0.28515E-05  4634   0.132E-02
  20 F= -.33732109E+03 E0= -.33730175E+03  d E =-.381701E-02  mag=     1.7892
       N       E                     dE             d eps       ncg     rms          rms(c)
DAV:   1    -0.327631029939E+03   -0.18827E-02   -0.13782E+00  9240   0.245E+00    0.254E-01
RMM:   2    -0.327634958040E+03   -0.39281E-02   -0.28078E-02  8969   0.374E-01    0.472E-01
RMM:   3    -0.327634345459E+03    0.61258E-03   -0.13837E-03  8565   0.104E-01    0.314E-01
RMM:   4    -0.327634499605E+03   -0.15415E-03   -0.48452E-04  7341   0.455E-02    0.353E-01
RMM:   5    -0.327634046605E+03    0.45300E-03   -0.18838E-04  5646   0.340E-02    0.200E-01
RMM:   6    -0.327634102757E+03   -0.56152E-04   -0.19018E-04  5682   0.337E-02
  21 F= -.33732342E+03 E0= -.33730410E+03  d E =-.233084E-02  mag=     1.7931
       N       E                     dE             d eps       ncg     rms          rms(c)
DAV:   1    -0.327634375746E+03   -0.32914E-03   -0.67455E-03  9552   0.185E-01    0.131E-01
RMM:   2    -0.327636870049E+03   -0.24943E-02   -0.15060E-03  7895   0.684E-02    0.599E-01
RMM:   3    -0.327634893168E+03    0.19769E-02   -0.53236E-04  6955   0.419E-02    0.290E-01
RMM:   4    -0.327634368352E+03    0.52482E-03   -0.83683E-05  5096   0.234E-02    0.531E-02
RMM:   5    -0.327634368052E+03    0.30002E-06   -0.34922E-05  4762   0.154E-02
  22 F= -.33732351E+03 E0= -.33730416E+03  d E =-.241805E-02  mag=     1.7948
       N       E                     dE             d eps       ncg     rms          rms(c)
DAV:   1    -0.327634715443E+03   -0.34709E-03   -0.25863E-02  9576   0.335E-01    0.569E-02
RMM:   2    -0.327634899910E+03   -0.18447E-03   -0.52676E-04  6970   0.538E-02    0.130E-01
RMM:   3    -0.327634897721E+03    0.21884E-05   -0.56510E-05  4923   0.226E-02
  23 F= -.33732368E+03 E0= -.33730432E+03  d E =-.259155E-02  mag=     1.7956
       N       E                     dE             d eps       ncg     rms          rms(c)
DAV:   1    -0.327636008129E+03   -0.11082E-02   -0.88086E-01  9120   0.202E+00    0.186E-01
RMM:   2    -0.327638850796E+03   -0.28427E-02   -0.18605E-02  8963   0.310E-01    0.435E-01
RMM:   3    -0.327638338651E+03    0.51215E-03   -0.94161E-04  8371   0.871E-02    0.318E-01
RMM:   4    -0.327637787905E+03    0.55075E-03   -0.23776E-04  6064   0.349E-02    0.155E-01
RMM:   5    -0.327637706489E+03    0.81416E-04   -0.10169E-04  5125   0.283E-02
  24 F= -.33732468E+03 E0= -.33730537E+03  d E =-.995213E-03  mag=     1.7980
       N       E                     dE             d eps       ncg     rms          rms(c)
DAV:   1    -0.327638262951E+03   -0.47505E-03   -0.14960E-01  9200   0.831E-01    0.135E-01
RMM:   2    -0.327639290072E+03   -0.10271E-02   -0.34267E-03  8781   0.133E-01    0.356E-01
RMM:   3    -0.327638575552E+03    0.71452E-03   -0.31099E-04  6381   0.456E-02    0.155E-01
RMM:   4    -0.327638624574E+03   -0.49022E-04   -0.86002E-05  5124   0.239E-02
  25 F= -.33732484E+03 E0= -.33730551E+03  d E =-.116391E-02  mag=     1.8008
       N       E                     dE             d eps       ncg     rms          rms(c)
DAV:   1    -0.327639184301E+03   -0.60875E-03   -0.90983E-01  9128   0.209E+00    0.203E-01
RMM:   2    -0.327642356163E+03   -0.31719E-02   -0.19366E-02  8987   0.325E-01    0.461E-01
RMM:   3    -0.327641616418E+03    0.73974E-03   -0.11500E-03  8555   0.940E-02    0.352E-01
RMM:   4    -0.327641132013E+03    0.48440E-03   -0.25208E-04  6229   0.356E-02    0.231E-01
RMM:   5    -0.327640856497E+03    0.27552E-03   -0.82173E-05  5137   0.271E-02    0.977E-02
RMM:   6    -0.327640935588E+03   -0.79091E-04   -0.15056E-04  5442   0.266E-02
  26 F= -.33732551E+03 E0= -.33730621E+03  d E =-.670614E-03  mag=     1.8063
       N       E                     dE             d eps       ncg     rms          rms(c)
DAV:   1    -0.327641042293E+03   -0.18580E-03   -0.23949E-02  9648   0.341E-01    0.830E-02
RMM:   2    -0.327641407254E+03   -0.36496E-03   -0.84489E-04  7901   0.654E-02    0.214E-01
RMM:   3    -0.327641091329E+03    0.31593E-03   -0.15124E-04  5462   0.296E-02    0.637E-02
RMM:   4    -0.327641121578E+03   -0.30249E-04   -0.29123E-05  4914   0.144E-02
  27 F= -.33732543E+03 E0= -.33730611E+03  d E =-.586684E-03  mag=     1.8086
       N       E                     dE             d eps       ncg     rms          rms(c)
DAV:   1    -0.327641165506E+03   -0.74177E-04   -0.66460E-01  9128   0.176E+00    0.186E-01
RMM:   2    -0.327643256765E+03   -0.20913E-02   -0.14561E-02  8937   0.277E-01    0.362E-01
RMM:   3    -0.327642933301E+03    0.32346E-03   -0.77008E-04  7931   0.756E-02    0.272E-01
RMM:   4    -0.327642698076E+03    0.23522E-03   -0.16913E-04  5577   0.316E-02    0.218E-01
RMM:   5    -0.327642628981E+03    0.69095E-04   -0.91242E-05  5164   0.280E-02
  28 F= -.33732573E+03 E0= -.33730637E+03  d E =-.298131E-03  mag=     1.8075
       N       E                     dE             d eps       ncg     rms          rms(c)
DAV:   1    -0.327642255870E+03    0.44221E-03   -0.96645E-02  9600   0.677E-01    0.187E-01
RMM:   2    -0.327654189465E+03   -0.11934E-01   -0.42674E-03  9087   0.141E-01    0.125E+00
RMM:   3    -0.327642977964E+03    0.11212E-01   -0.10386E-03  8442   0.694E-02    0.344E-01
RMM:   4    -0.327642315187E+03    0.66278E-03   -0.29324E-04  6466   0.418E-02    0.856E-02
RMM:   5    -0.327642298787E+03    0.16400E-04   -0.50374E-05  4978   0.211E-02
  29 F= -.33732586E+03 E0= -.33730649E+03  d E =-.425274E-03  mag=     1.8077
