<?xml version="1.0" encoding="ISO-8859-1"?>
<modeling>
 <generator>
  <i name="program" type="string">vasp </i>
  <i name="version" type="string">5.4.1  </i>
  <i name="subversion" type="string">08Jul2015 (build Apr 24 2014 00:09:29) complex standard with constrain (TS)     parallel </i>
  <i name="platform" type="string">IBM of Center for Computational Chemistry </i>
  <i name="date" type="string">2018 03 19 </i>
  <i name="time" type="string">04:33:46 </i>
 </generator>
 <incar>
  <i type="int" name="ISTART">     0</i>
  <i type="string" name="PREC">accurate       ! [low/medium/high/norma</i>
  <i type="string" name="ALGO">Fast</i>
  <i type="int" name="ISPIN">     2</i>
  <i type="int" name="NELM">   300</i>
  <i type="int" name="NELMIN">     3</i>
  <i type="int" name="IBRION">     2</i>
  <i name="EDIFFG">     -0.05000000</i>
  <i type="int" name="NSW">  1000</i>
  <i type="int" name="ISIF">     2</i>
  <i type="int" name="ISYM">     0</i>
  <i name="ENCUT">    500.00000000</i>
  <i name="POTIM">      0.10000000</i>
  <i type="string" name="LREAL"> A    ! aproximace, T zpomaluje, ale pre</i>
  <i type="int" name="ISMEAR">     0</i>
  <i name="SIGMA">      0.05000000</i>
  <i type="int" name="NWRITE">     2</i>
  <i type="logical" name="LWAVE"> F  </i>
  <i type="logical" name="LCHARG"> F  </i>
  <v type="int" name="KPOINT_BSE">    -1     0     0     0</v>
  <i type="int" name="NELM">   300</i>
 </incar>
 <kpoints>
  <generation param="Gamma">
   <v type="int" name="divisions">       4        4        1 </v>
   <v name="usershift">      0.00000000       0.00000000       0.00000000 </v>
   <v name="genvec1">      0.25000000       0.00000000       0.00000000 </v>
   <v name="genvec2">      0.00000000       0.25000000       0.00000000 </v>
   <v name="genvec3">      0.00000000       0.00000000       1.00000000 </v>
   <v name="shift">      0.00000000       0.00000000       0.00000000 </v>
  </generation>
  <varray name="kpointlist" >
   <v>       0.00000000       0.00000000       0.00000000 </v>
   <v>       0.25000000       0.00000000       0.00000000 </v>
   <v>       0.50000000       0.00000000       0.00000000 </v>
   <v>       0.00000000       0.25000000       0.00000000 </v>
   <v>       0.25000000       0.25000000       0.00000000 </v>
   <v>       0.50000000       0.25000000       0.00000000 </v>
   <v>      -0.25000000       0.25000000       0.00000000 </v>
   <v>       0.00000000       0.50000000       0.00000000 </v>
   <v>       0.25000000       0.50000000       0.00000000 </v>
   <v>       0.50000000       0.50000000       0.00000000 </v>
  </varray>
  <varray name="weights" >
   <v>       0.06250000 </v>
   <v>       0.12500000 </v>
   <v>       0.06250000 </v>
   <v>       0.12500000 </v>
   <v>       0.12500000 </v>
   <v>       0.12500000 </v>
   <v>       0.12500000 </v>
   <v>       0.06250000 </v>
   <v>       0.12500000 </v>
   <v>       0.06250000 </v>
  </varray>
 </kpoints>
 <parameters>
  <separator name="general" >
   <i type="string" name="SYSTEM"></i>
   <i type="logical" name="LCOMPAT"> F  </i>
  </separator>
  <separator name="electronic" >
   <i type="string" name="PREC">accura</i>
   <i name="ENMAX">    500.00000000</i>
   <i name="ENAUG">    605.39200000</i>
   <i name="EDIFF">      0.00010000</i>
   <i type="int" name="IALGO">    68</i>
   <i type="int" name="IWAVPR">    11</i>
   <i type="int" name="NBANDS">   228</i>
   <i name="NELECT">    336.00000000</i>
   <i type="int" name="TURBO">     0</i>
   <i type="int" name="IRESTART">     0</i>
   <i type="int" name="NREBOOT">     0</i>
   <i type="int" name="NMIN">     0</i>
   <i name="EREF">      0.00000000</i>
   <separator name="electronic smearing" >
    <i type="int" name="ISMEAR">     0</i>
    <i name="SIGMA">      0.05000000</i>
    <i name="KSPACING">      0.50000000</i>
    <i type="logical" name="KGAMMA"> T  </i>
   </separator>
   <separator name="electronic projectors" >
    <i type="logical" name="LREAL"> T  </i>
    <v name="ROPT">     -0.00025000     -0.00025000     -0.00025000     -0.00025000</v>
    <i type="int" name="LMAXPAW">  -100</i>
    <i type="int" name="LMAXMIX">     2</i>
    <i type="logical" name="NLSPLINE"> F  </i>
   </separator>
   <separator name="electronic startup" >
    <i type="int" name="ISTART">     0</i>
    <i type="int" name="ICHARG">     2</i>
    <i type="int" name="INIWAV">     1</i>
   </separator>
   <separator name="electronic spin" >
    <i type="int" name="ISPIN">     2</i>
    <i type="logical" name="LNONCOLLINEAR"> F  </i>
    <v name="MAGMOM">      1.00000000      1.00000000      1.00000000      1.00000000      1.00000000      1.00000000      1.00000000      1.00000000      1.00000000      1.00000000      1.00000000      1.00000000      1.00000000      1.00000000      1.00000000      1.00000000      1.00000000      1.00000000      1.00000000      1.00000000
      1.00000000      1.00000000      1.00000000      1.00000000      1.00000000      1.00000000      1.00000000      1.00000000      1.00000000      1.00000000      1.00000000      1.00000000      1.00000000      1.00000000      1.00000000      1.00000000      1.00000000      1.00000000      1.00000000      1.00000000
      1.00000000      1.00000000      1.00000000      1.00000000      1.00000000      1.00000000      1.00000000      1.00000000</v>
    <i name="NUPDOWN">     -1.00000000</i>
    <i type="logical" name="LSORBIT"> F  </i>
    <v name="SAXIS">      0.00000000      0.00000000      1.00000000</v>
    <i type="logical" name="LSPIRAL"> F  </i>
    <v name="QSPIRAL">      0.00000000      0.00000000      0.00000000</v>
    <i type="logical" name="LZEROZ"> F  </i>
   </separator>
   <separator name="electronic exchange-correlation" >
    <i type="logical" name="LASPH"> F  </i>
    <i type="logical" name="LMETAGGA"> F  </i>
   </separator>
   <separator name="electronic convergence" >
    <i type="int" name="NELM">   300</i>
    <i type="int" name="NELMDL">    -5</i>
    <i type="int" name="NELMIN">     3</i>
    <i name="ENINI">    500.00000000</i>
    <separator name="electronic convergence detail" >
     <i type="logical" name="LDIAG"> T  </i>
     <i type="logical" name="LSUBROT"> F  </i>
     <i name="WEIMIN">      0.00100000</i>
     <i name="EBREAK">      0.00000011</i>
     <i name="DEPER">      0.30000000</i>
     <i type="int" name="NRMM">     4</i>
     <i name="TIME">      0.40000000</i>
    </separator>
   </separator>
   <separator name="electronic mixer" >
    <i name="AMIX">      0.40000000</i>
    <i name="BMIX">      1.00000000</i>
    <i name="AMIN">      0.10000000</i>
    <i name="AMIX_MAG">      1.60000000</i>
    <i name="BMIX_MAG">      1.00000000</i>
    <separator name="electronic mixer details" >
     <i type="int" name="IMIX">     4</i>
     <i type="logical" name="MIXFIRST"> F  </i>
     <i type="int" name="MAXMIX">   -45</i>
     <i name="WC">    100.00000000</i>
     <i type="int" name="INIMIX">     1</i>
     <i type="int" name="MIXPRE">     1</i>
     <i type="int" name="MREMOVE">     5</i>
    </separator>
   </separator>
   <separator name="electronic dipolcorrection" >
    <i type="logical" name="LDIPOL"> F  </i>
    <i type="logical" name="LMONO"> F  </i>
    <i type="int" name="IDIPOL">     0</i>
    <i name="EPSILON">      1.00000000</i>
    <v name="DIPOL">   -100.00000000   -100.00000000   -100.00000000</v>
    <i name="EFIELD">      0.00000000</i>
   </separator>
  </separator>
  <separator name="grids" >
   <i type="int" name="NGX">    48</i>
   <i type="int" name="NGY">    48</i>
   <i type="int" name="NGZ">   162</i>
   <i type="int" name="NGXF">    96</i>
   <i type="int" name="NGYF">    96</i>
   <i type="int" name="NGZF">   324</i>
   <i type="logical" name="ADDGRID"> F  </i>
  </separator>
  <separator name="ionic" >
   <i type="int" name="NSW">  1000</i>
   <i type="int" name="IBRION">     2</i>
   <i type="int" name="ISIF">     2</i>
   <i name="PSTRESS">      0.00000000</i>
   <i name="EDIFFG">     -0.05000000</i>
   <i type="int" name="NFREE">     1</i>
   <i name="POTIM">      0.10000000</i>
   <i name="SMASS">     -3.00000000</i>
   <i name="SCALEE">      1.00000000</i>
  </separator>
  <separator name="ionic md" >
   <i name="TEBEG">      0.00010000</i>
   <i name="TEEND">      0.00010000</i>
   <i type="int" name="NBLOCK">     1</i>
   <i type="int" name="KBLOCK">  1000</i>
   <i type="int" name="NPACO">   256</i>
   <i name="APACO">     16.00000000</i>
  </separator>
  <separator name="symmetry" >
   <i type="int" name="ISYM">     0</i>
   <i name="SYMPREC">      0.00001000</i>
  </separator>
  <separator name="dos" >
   <i type="logical" name="LORBIT"> F  </i>
   <v name="RWIGS">     -1.00000000     -1.00000000     -1.00000000     -1.00000000</v>
   <i type="int" name="NEDOS">   301</i>
   <i name="EMIN">     10.00000000</i>
   <i name="EMAX">    -10.00000000</i>
   <i name="EFERMI">      0.00000000</i>
  </separator>
  <separator name="writing" >
   <i type="int" name="NWRITE">     2</i>
   <i type="logical" name="LWAVE"> F  </i>
   <i type="logical" name="LCHARG"> F  </i>
   <i type="logical" name="LPARD"> F  </i>
   <i type="logical" name="LVTOT"> F  </i>
   <i type="logical" name="LVHAR"> F  </i>
   <i type="logical" name="LELF"> F  </i>
   <i type="logical" name="LOPTICS"> F  </i>
   <v name="STM">      0.00000000      0.00000000      0.00000000      0.00000000      0.00000000      0.00000000      0.00000000</v>
  </separator>
  <separator name="performance" >
   <i type="int" name="NPAR">     4</i>
   <i type="int" name="NSIM">     4</i>
   <i type="int" name="NBLK">    -1</i>
   <i type="logical" name="LPLANE"> T  </i>
   <i type="logical" name="LSCALAPACK"> T  </i>
   <i type="logical" name="LSCAAWARE"> F  </i>
   <i type="logical" name="LSCALU"> F  </i>
   <i type="logical" name="LASYNC"> F  </i>
   <i type="logical" name="LORBITALREAL"> F  </i>
  </separator>
  <separator name="miscellaneous" >
   <i type="int" name="IDIOT">     3</i>
   <i type="logical" name="LMUSIC"> F  </i>
   <v name="POMASS">     16.00000000    101.07000000    106.42000000    192.22000000</v>
   <v name="DARWINR">      0.00000000      0.00000000      0.00000000      0.00000000</v>
   <v name="DARWINV">      1.00000000      1.00000000      1.00000000      1.00000000</v>
   <i type="logical" name="LCORR"> T  </i>
  </separator>
  <i type="logical" name="GGA_COMPAT"> T  </i>
  <i type="logical" name="LBERRY"> F  </i>
  <i type="int" name="ICORELEVEL">     0</i>
  <i type="logical" name="LDAU"> F  </i>
  <i type="int" name="I_CONSTRAINED_M">     0</i>
  <separator name="electronic exchange-correlation" >
   <i type="string" name="GGA">--</i>
   <i type="int" name="VOSKOWN">     0</i>
   <i type="logical" name="LHFCALC"> F  </i>
   <i type="string" name="PRECFOCK"></i>
   <i type="logical" name="LSYMGRAD"> F  </i>
   <i type="logical" name="LHFONE"> F  </i>
   <i type="logical" name="LRHFCALC"> F  </i>
   <i type="logical" name="LTHOMAS"> F  </i>
   <i type="logical" name="LMODELHF"> F  </i>
   <i name="ENCUT4O">     -1.00000000</i>
   <i type="int" name="EXXOEP">     0</i>
   <i type="int" name="FOURORBIT">     0</i>
   <i name="AEXX">      0.00000000</i>
   <i name="HFALPHA">      0.00000000</i>
   <i name="MCALPHA">      0.00000000</i>
   <i name="ALDAX">      1.00000000</i>
   <i name="AGGAX">      1.00000000</i>
   <i name="ALDAC">      1.00000000</i>
   <i name="AGGAC">      1.00000000</i>
   <i type="int" name="NKREDX">     1</i>
   <i type="int" name="NKREDY">     1</i>
   <i type="int" name="NKREDZ">     1</i>
   <i type="logical" name="SHIFTRED"> F  </i>
   <i type="logical" name="ODDONLY"> F  </i>
   <i type="logical" name="EVENONLY"> F  </i>
   <i type="int" name="LMAXFOCK">     0</i>
   <i type="int" name="NMAXFOCKAE">     0</i>
   <i type="logical" name="LFOCKAEDFT"> F  </i>
   <i name="HFSCREEN">      0.00000000</i>
   <i name="HFSCREENC">      0.00000000</i>
   <i type="int" name="NBANDSGWLOW">     0</i>
  </separator>
  <separator name="vdW DFT" >
   <i type="logical" name="LUSE_VDW"> F  </i>
   <i name="Zab_VDW">     -0.84910000</i>
   <i name="PARAM1">      0.12340000</i>
   <i name="PARAM2">      1.00000000</i>
   <i name="PARAM3">      0.00000000</i>
  </separator>
  <separator name="model GW" >
   <i type="int" name="MODEL_GW">     0</i>
   <i name="MODEL_EPS0">     11.18121409</i>
   <i name="MODEL_ALPHA">      1.00000000</i>
  </separator>
  <separator name="linear response parameters" >
   <i type="logical" name="LEPSILON"> F  </i>
   <i type="logical" name="LRPA"> F  </i>
   <i type="logical" name="LNABLA"> F  </i>
   <i type="logical" name="LVEL"> F  </i>
   <i type="int" name="KINTER">     0</i>
   <i name="CSHIFT">      0.10000000</i>
   <i name="OMEGAMAX">     -1.00000000</i>
   <i name="DEG_THRESHOLD">      0.00200000</i>
  </separator>
  <separator name="orbital magnetization" >
   <i type="logical" name="NUCIND"> F  </i>
   <v name="MAGPOS">      0.00000000      0.00000000      0.00000000</v>
   <i type="logical" name="LNICSALL"> T  </i>
   <i type="logical" name="ORBITALMAG"> F  </i>
   <i type="logical" name="LMAGBLOCH"> F  </i>
   <i type="logical" name="LCHIMAG"> F  </i>
   <i type="logical" name="LGAUGE"> T  </i>
   <i type="int" name="MAGATOM">     0</i>
   <v name="MAGDIPOL">      0.00000000      0.00000000      0.00000000</v>
   <v name="AVECCONST">      0.00000000      0.00000000      0.00000000</v>
  </separator>
  <separator name="response functions" >
   <i type="logical" name="LADDER"> F  </i>
   <i type="logical" name="LFXC"> F  </i>
   <i type="logical" name="LHARTREE"> T  </i>
   <i type="int" name="IBSE">     0</i>
   <v type="int" name="KPOINT">    -1     0     0     0</v>
   <i type="logical" name="LTCTE"> F  </i>
   <i type="logical" name="LTETE"> F  </i>
   <i type="logical" name="LTRIPLET"> F  </i>
   <i type="logical" name="LFXCEPS"> F  </i>
   <i type="logical" name="LFXHEG"> F  </i>
   <i type="int" name="NATURALO">     0</i>
   <i type="logical" name="L2ORDER"> F  </i>
   <i type="logical" name="LUSEW"> F  </i>
   <i name="ENCUTGW">     -2.00000000</i>
   <i name="ENCUTGWSOFT">     -2.00000000</i>
   <i name="ENCUTLF">     -1.00000000</i>
   <i type="int" name="LMAXMP2">    -1</i>
   <i name="SCISSOR">      0.00000000</i>
   <i type="int" name="NOMEGA">     0</i>
   <i type="int" name="NOMEGAR">     0</i>
   <i type="int" name="NBANDSGW">    -1</i>
   <i type="int" name="NBANDSO">    -1</i>
   <i type="int" name="NBANDSV">    -1</i>
   <i type="int" name="NELM">   300</i>
   <i type="int" name="NELMHF">     1</i>
   <i type="int" name="DIM">     3</i>
   <i type="int" name="ANTIRES">     0</i>
   <i name="OMEGAMAX">    -30.00000000</i>
   <i name="OMEGAMIN">    -30.00000000</i>
   <i name="OMEGATL">   -200.00000000</i>
   <i type="int" name="OMEGAGRID">     0</i>
   <i name="CSHIFT">     -0.10000000</i>
   <i type="logical" name="SELFENERGY"> F  </i>
   <i type="logical" name="LSPECTRAL"> F  </i>
   <i type="logical" name="LSPECTRALGW"> F  </i>
   <i type="logical" name="LSINGLES"> F  </i>
   <i type="logical" name="LFERMIGW"> F  </i>
   <i type="logical" name="ODDONLYGW"> F  </i>
   <i type="logical" name="EVENONLYGW"> F  </i>
   <i type="int" name="NKREDLFX">     1</i>
   <i type="int" name="NKREDLFY">     1</i>
   <i type="int" name="NKREDLFZ">     1</i>
   <i type="int" name="MAXMEM">  1800</i>
   <i type="int" name="TELESCOPE">     0</i>
   <i type="int" name="TAUPAR">     1</i>
   <i type="int" name="OMEGAPAR">    -1</i>
   <i name="LAMBDA">      1.00000000</i>
  </separator>
  <separator name="External order field" >
   <i name="OFIELD_KAPPA">      0.00000000</i>
   <v name="OFIELD_K">      0.00000000      0.00000000      0.00000000</v>
   <i name="OFIELD_Q6_NEAR">      0.00000000</i>
   <i name="OFIELD_Q6_FAR">      0.00000000</i>
   <i name="OFIELD_A">      0.00000000</i>
  </separator>
 </parameters>
 <atominfo>
  <atoms>      48 </atoms>
  <types>       4 </types>
  <array name="atoms" >
   <dimension dim="1">ion</dimension>
   <field type="string">element</field>
   <field type="int">atomtype</field>
   <set>
    <rc><c>O </c><c>   1</c></rc>
    <rc><c>O </c><c>   1</c></rc>
    <rc><c>O </c><c>   1</c></rc>
    <rc><c>O </c><c>   1</c></rc>
    <rc><c>O </c><c>   1</c></rc>
    <rc><c>O </c><c>   1</c></rc>
    <rc><c>O </c><c>   1</c></rc>
    <rc><c>O </c><c>   1</c></rc>
    <rc><c>O </c><c>   1</c></rc>
    <rc><c>O </c><c>   1</c></rc>
    <rc><c>O </c><c>   1</c></rc>
    <rc><c>O </c><c>   1</c></rc>
    <rc><c>O </c><c>   1</c></rc>
    <rc><c>O </c><c>   1</c></rc>
    <rc><c>O </c><c>   1</c></rc>
    <rc><c>O </c><c>   1</c></rc>
    <rc><c>O </c><c>   1</c></rc>
    <rc><c>O </c><c>   1</c></rc>
    <rc><c>O </c><c>   1</c></rc>
    <rc><c>O </c><c>   1</c></rc>
    <rc><c>O </c><c>   1</c></rc>
    <rc><c>O </c><c>   1</c></rc>
    <rc><c>O </c><c>   1</c></rc>
    <rc><c>O </c><c>   1</c></rc>
    <rc><c>O </c><c>   1</c></rc>
    <rc><c>O </c><c>   1</c></rc>
    <rc><c>O </c><c>   1</c></rc>
    <rc><c>O </c><c>   1</c></rc>
    <rc><c>O </c><c>   1</c></rc>
    <rc><c>O </c><c>   1</c></rc>
    <rc><c>O </c><c>   1</c></rc>
    <rc><c>O </c><c>   1</c></rc>
    <rc><c>Ru</c><c>   2</c></rc>
    <rc><c>Pd</c><c>   3</c></rc>
    <rc><c>Ir</c><c>   4</c></rc>
    <rc><c>Ir</c><c>   4</c></rc>
    <rc><c>Ir</c><c>   4</c></rc>
    <rc><c>Ir</c><c>   4</c></rc>
    <rc><c>Ir</c><c>   4</c></rc>
    <rc><c>Ir</c><c>   4</c></rc>
    <rc><c>Ir</c><c>   4</c></rc>
    <rc><c>Ir</c><c>   4</c></rc>
    <rc><c>Ir</c><c>   4</c></rc>
    <rc><c>Ir</c><c>   4</c></rc>
    <rc><c>Ir</c><c>   4</c></rc>
    <rc><c>Ir</c><c>   4</c></rc>
    <rc><c>Ir</c><c>   4</c></rc>
    <rc><c>Ir</c><c>   4</c></rc>
   </set>
  </array>
  <array name="atomtypes" >
   <dimension dim="1">type</dimension>
   <field type="int">atomspertype</field>
   <field type="string">element</field>
   <field>mass</field>
   <field>valence</field>
   <field type="string">pseudopotential</field>
   <set>
    <rc><c>  32</c><c>O </c><c>     16.00000000</c><c>      6.00000000</c><c>  PAW_PBE O 08Apr2002                   </c></rc>
    <rc><c>   1</c><c>Ru</c><c>    101.07000000</c><c>      8.00000000</c><c>  PAW_PBE Ru 04Feb2005                  </c></rc>
    <rc><c>   1</c><c>Pd</c><c>    106.42000000</c><c>     10.00000000</c><c>  PAW_PBE Pd 04Jan2005                  </c></rc>
    <rc><c>  14</c><c>Ir</c><c>    192.22000000</c><c>      9.00000000</c><c>  PAW_PBE Ir 06Sep2000                  </c></rc>
   </set>
  </array>
 </atominfo>
 <structure name="initialpos" >
  <crystal>
   <varray name="basis" >
    <v>       6.36215693       0.00000000       0.00000000 </v>
    <v>       0.00000000       6.38448299       0.00000000 </v>
    <v>       0.00000000       0.00000000      22.02159841 </v>
   </varray>
   <i name="volume">    894.49712699 </i>
   <varray name="rec_basis" >
    <v>       0.15717940       0.00000000       0.00000000 </v>
    <v>       0.00000000       0.15662975       0.00000000 </v>
    <v>       0.00000000       0.00000000       0.04540996 </v>
   </varray>
  </crystal>
  <varray name="positions" >
   <v>       0.08911000       0.35546000       0.00000000 </v>
   <v>       0.58911000       0.35546000       0.00000000 </v>
   <v>       0.33911000       0.04693000       0.05551000 </v>
   <v>       0.83911000       0.04693000       0.05551000 </v>
   <v>       0.33911000       0.66399000       0.05551000 </v>
   <v>       0.83911000       0.66399000       0.05551000 </v>
   <v>       0.08911000       0.35546000       0.11102000 </v>
   <v>       0.58911000       0.35546000       0.11102000 </v>
   <v>       0.58911000       0.85546000       0.14496000 </v>
   <v>       0.08911000       0.85546000       0.14496000 </v>
   <v>       0.33911000       0.16399000       0.20047000 </v>
   <v>       0.83911000       0.16399000       0.20047000 </v>
   <v>       0.33911000       0.54693000       0.20047000 </v>
   <v>       0.83911000       0.54693000       0.20047000 </v>
   <v>       0.08911000       0.85546000       0.25598000 </v>
   <v>       0.58911000       0.85546000       0.25598000 </v>
   <v>       0.08914000       0.35542000       0.28947000 </v>
   <v>       0.58914000       0.35542000       0.28947000 </v>
   <v>       0.33913000       0.04670000       0.34597000 </v>
   <v>       0.83913000       0.04670000       0.34597000 </v>
   <v>       0.33911000       0.66418000       0.34595000 </v>
   <v>       0.83911000       0.66418000       0.34595000 </v>
   <v>       0.08916000       0.35571000       0.39990000 </v>
   <v>       0.58916000       0.35571000       0.39990000 </v>
   <v>       0.08915000       0.85549000       0.43609000 </v>
   <v>       0.58915000       0.85549000       0.43609000 </v>
   <v>       0.33914000       0.16538000       0.49406000 </v>
   <v>       0.83914000       0.16538000       0.49406000 </v>
   <v>       0.33915000       0.54556000       0.49405000 </v>
   <v>       0.83915000       0.54556000       0.49405000 </v>
   <v>       0.08915000       0.85548000       0.54665000 </v>
   <v>       0.58915000       0.85548000       0.54665000 </v>
   <v>       0.33915000       0.85545000       0.49288000 </v>
   <v>       0.58913000       0.35545000       0.48811000 </v>
   <v>       0.33911000       0.35546000       0.05551000 </v>
   <v>       0.83911000       0.35546000       0.05551000 </v>
   <v>       0.08911000       0.85546000       0.05551000 </v>
   <v>       0.58911000       0.85546000       0.05551000 </v>
   <v>       0.08911000       0.35546000       0.20047000 </v>
   <v>       0.58911000       0.35546000       0.20047000 </v>
   <v>       0.33911000       0.85546000       0.20047000 </v>
   <v>       0.83911000       0.85546000       0.20047000 </v>
   <v>       0.83914000       0.35543000       0.34488000 </v>
   <v>       0.33914000       0.35543000       0.34488000 </v>
   <v>       0.08911000       0.85543000       0.34634000 </v>
   <v>       0.58911000       0.85543000       0.34634000 </v>
   <v>       0.08913000       0.35545000       0.48811000 </v>
   <v>       0.83915000       0.85545000       0.49288000 </v>
  </varray>
  <varray name="selective"  type="logical" >
   <v type="logical" >  F  F  F </v>
   <v type="logical" >  F  F  F </v>
   <v type="logical" >  F  F  F </v>
   <v type="logical" >  F  F  F </v>
   <v type="logical" >  F  F  F </v>
   <v type="logical" >  F  F  F </v>
   <v type="logical" >  F  F  F </v>
   <v type="logical" >  F  F  F </v>
   <v type="logical" >  F  F  F </v>
   <v type="logical" >  F  F  F </v>
   <v type="logical" >  F  F  F </v>
   <v type="logical" >  F  F  F </v>
   <v type="logical" >  F  F  F </v>
   <v type="logical" >  F  F  F </v>
   <v type="logical" >  F  F  F </v>
   <v type="logical" >  F  F  F </v>
   <v type="logical" >  T  T  T </v>
   <v type="logical" >  T  T  T </v>
   <v type="logical" >  T  T  T </v>
   <v type="logical" >  T  T  T </v>
   <v type="logical" >  T  T  T </v>
   <v type="logical" >  T  T  T </v>
   <v type="logical" >  T  T  T </v>
   <v type="logical" >  T  T  T </v>
   <v type="logical" >  T  T  T </v>
   <v type="logical" >  T  T  T </v>
   <v type="logical" >  T  T  T </v>
   <v type="logical" >  T  T  T </v>
   <v type="logical" >  T  T  T </v>
   <v type="logical" >  T  T  T </v>
   <v type="logical" >  T  T  T </v>
   <v type="logical" >  T  T  T </v>
   <v type="logical" >  T  T  T </v>
   <v type="logical" >  T  T  T </v>
   <v type="logical" >  F  F  F </v>
   <v type="logical" >  F  F  F </v>
   <v type="logical" >  F  F  F </v>
   <v type="logical" >  F  F  F </v>
   <v type="logical" >  F  F  F </v>
   <v type="logical" >  F  F  F </v>
   <v type="logical" >  F  F  F </v>
   <v type="logical" >  F  F  F </v>
   <v type="logical" >  T  T  T </v>
   <v type="logical" >  T  T  T </v>
   <v type="logical" >  T  T  T </v>
   <v type="logical" >  T  T  T </v>
   <v type="logical" >  T  T  T </v>
   <v type="logical" >  T  T  T </v>
  </varray>
  <nose>
   <v>      -3.00000000       0.00000000       0.00010000       0.00010000 </v>
  </nose>
 </structure>
 <calculation>
  <scstep>
   <time name="dav">   28.59   28.61</time>
   <time name="total">   28.91   28.93</time>
   <energy>
    <i name="alphaZ">    990.65221584 </i>
    <i name="ewald">  63486.37913263 </i>
    <i name="hartreedc"> -86673.53516421 </i>
    <i name="XCdc">    592.91352749 </i>
    <i name="pawpsdc">  20072.59113847 </i>
    <i name="pawaedc"> -19454.65560590 </i>
    <i name="eentropy">     -0.02815783 </i>
    <i name="bandstr">   1627.05105537 </i>
    <i name="atom">  22942.57734542 </i>
    <i name="e_fr_energy">   3583.94548725 </i>
    <i name="e_wo_entrp">   3583.97364509 </i>
    <i name="e_0_energy">   3583.95956617 </i>
   </energy>
  </scstep>
  <scstep>
   <time name="dav">   29.65   29.67</time>
   <time name="total">   29.66   29.68</time>
   <energy>
    <i name="e_fr_energy">    151.99706794 </i>
    <i name="e_wo_entrp">    152.02244713 </i>
    <i name="e_0_energy">    152.00975753 </i>
   </energy>
  </scstep>
  <scstep>
   <time name="dav">   33.53   33.55</time>
   <time name="total">   33.54   33.55</time>
   <energy>
    <i name="e_fr_energy">   -360.26385490 </i>
    <i name="e_wo_entrp">   -360.22715830 </i>
    <i name="e_0_energy">   -360.24550660 </i>
   </energy>
  </scstep>
  <scstep>
   <time name="dav">   33.60   33.62</time>
   <time name="total">   33.61   33.62</time>
   <energy>
    <i name="e_fr_energy">   -383.67297563 </i>
    <i name="e_wo_entrp">   -383.64021793 </i>
    <i name="e_0_energy">   -383.65659678 </i>
   </energy>
  </scstep>
  <scstep>
   <time name="dav">   33.52   33.53</time>
   <time name="total">   34.45   34.47</time>
   <energy>
    <i name="e_fr_energy">   -384.28371980 </i>
    <i name="e_wo_entrp">   -384.25097070 </i>
    <i name="e_0_energy">   -384.26734525 </i>
   </energy>
  </scstep>
  <scstep>
   <time name="diag">    4.81    4.81</time>
   <time name="diis">   15.70   15.72</time>
   <time name="orth">    0.97    0.97</time>
   <time name="total">   22.71   22.73</time>
   <energy>
    <i name="e_fr_energy">   -299.96090412 </i>
    <i name="e_wo_entrp">   -299.92898425 </i>
    <i name="e_0_energy">   -299.94494418 </i>
   </energy>
  </scstep>
  <scstep>
   <time name="diag">    4.81    4.81</time>
   <time name="diis">   15.98   15.98</time>
   <time name="orth">    0.97    0.97</time>
   <time name="total">   22.99   23.00</time>
   <energy>
    <i name="e_fr_energy">   -535.79815715 </i>
    <i name="e_wo_entrp">   -535.77612274 </i>
    <i name="e_0_energy">   -535.78713994 </i>
   </energy>
  </scstep>
  <scstep>
   <time name="diag">    4.81    4.81</time>
   <time name="diis">   15.70   15.71</time>
   <time name="orth">    0.97    0.97</time>
   <time name="total">   22.72   22.73</time>
   <energy>
    <i name="e_fr_energy">   -361.68783471 </i>
    <i name="e_wo_entrp">   -361.66100484 </i>
    <i name="e_0_energy">   -361.67441978 </i>
   </energy>
  </scstep>
  <scstep>
   <time name="diag">    4.81    4.81</time>
   <time name="diis">   15.69   15.70</time>
   <time name="orth">    0.97    0.97</time>
   <time name="total">   22.69   22.71</time>
   <energy>
    <i name="e_fr_energy">   -374.97544772 </i>
    <i name="e_wo_entrp">   -374.95842373 </i>
    <i name="e_0_energy">   -374.96693573 </i>
   </energy>
  </scstep>
  <scstep>
   <time name="diag">    4.81    4.82</time>
   <time name="diis">   15.68   15.68</time>
   <time name="orth">    0.97    0.97</time>
   <time name="total">   22.69   22.70</time>
   <energy>
    <i name="e_fr_energy">   -322.47536724 </i>
    <i name="e_wo_entrp">   -322.45434030 </i>
    <i name="e_0_energy">   -322.46485377 </i>
   </energy>
  </scstep>
  <scstep>
   <time name="diag">    4.77    4.77</time>
   <time name="diis">   15.69   15.69</time>
   <time name="orth">    0.97    0.97</time>
   <time name="total">   22.65   22.66</time>
   <energy>
    <i name="e_fr_energy">   -286.95020435 </i>
    <i name="e_wo_entrp">   -286.91873254 </i>
    <i name="e_0_energy">   -286.93446845 </i>
   </energy>
  </scstep>
  <scstep>
   <time name="diag">    4.77    4.77</time>
   <time name="diis">   15.70   15.71</time>
   <time name="orth">    0.97    0.97</time>
   <time name="total">   22.66   22.68</time>
   <energy>
    <i name="e_fr_energy">   -296.59208165 </i>
    <i name="e_wo_entrp">   -296.56837050 </i>
    <i name="e_0_energy">   -296.58022607 </i>
   </energy>
  </scstep>
  <scstep>
   <time name="diag">    4.77    4.77</time>
   <time name="diis">   15.71   15.72</time>
   <time name="orth">    0.97    0.97</time>
   <time name="total">   22.67   22.69</time>
   <energy>
    <i name="e_fr_energy">   -292.11423930 </i>
    <i name="e_wo_entrp">   -292.08306154 </i>
    <i name="e_0_energy">   -292.09865042 </i>
   </energy>
  </scstep>
  <scstep>
   <time name="diag">    4.77    4.77</time>
   <time name="diis">   15.69   15.70</time>
   <time name="orth">    0.97    0.97</time>
   <time name="total">   22.66   22.67</time>
   <energy>
    <i name="e_fr_energy">   -294.20872656 </i>
    <i name="e_wo_entrp">   -294.17554516 </i>
    <i name="e_0_energy">   -294.19213586 </i>
   </energy>
  </scstep>
  <scstep>
   <time name="diag">    4.77    4.77</time>
   <time name="diis">   15.70   15.71</time>
   <time name="orth">    0.97    0.97</time>
   <time name="total">   22.67   22.68</time>
   <energy>
    <i name="e_fr_energy">   -298.23861825 </i>
    <i name="e_wo_entrp">   -298.20357571 </i>
    <i name="e_0_energy">   -298.22109698 </i>
   </energy>
  </scstep>
  <scstep>
   <time name="diag">    4.83    4.83</time>
   <time name="diis">   15.70   15.70</time>
   <time name="orth">    0.97    0.97</time>
   <time name="total">   22.72   22.74</time>
   <energy>
    <i name="e_fr_energy">   -304.01918524 </i>
    <i name="e_wo_entrp">   -303.97776804 </i>
    <i name="e_0_energy">   -303.99847664 </i>
   </energy>
  </scstep>
  <scstep>
   <time name="diag">    4.83    4.83</time>
   <time name="diis">   15.71   15.72</time>
   <time name="orth">    0.97    0.97</time>
   <time name="total">   22.74   22.75</time>
   <energy>
    <i name="e_fr_energy">   -314.27678498 </i>
    <i name="e_wo_entrp">   -314.24300001 </i>
    <i name="e_0_energy">   -314.25989250 </i>
   </energy>
  </scstep>
  <scstep>
   <time name="diag">    4.82    4.82</time>
   <time name="diis">   15.70   15.71</time>
   <time name="orth">    0.97    0.97</time>
   <time name="total">   22.72   22.74</time>
   <energy>
    <i name="e_fr_energy">   -320.31949325 </i>
    <i name="e_wo_entrp">   -320.28952396 </i>
    <i name="e_0_energy">   -320.30450860 </i>
   </energy>
  </scstep>
  <scstep>
   <time name="diag">    4.82    4.82</time>
   <time name="diis">   15.70   15.71</time>
   <time name="orth">    0.97    0.97</time>
   <time name="total">   22.72   22.74</time>
   <energy>
    <i name="e_fr_energy">   -321.93106357 </i>
    <i name="e_wo_entrp">   -321.89686154 </i>
    <i name="e_0_energy">   -321.91396256 </i>
   </energy>
  </scstep>
  <scstep>
   <time name="diag">    4.83    4.83</time>
   <time name="diis">   15.69   15.70</time>
   <time name="orth">    0.97    0.97</time>
   <time name="total">   22.72   22.73</time>
   <energy>
    <i name="e_fr_energy">   -323.77007686 </i>
    <i name="e_wo_entrp">   -323.72761891 </i>
    <i name="e_0_energy">   -323.74884788 </i>
   </energy>
  </scstep>
  <scstep>
   <time name="diag">    4.82    4.82</time>
   <time name="diis">   15.72   15.72</time>
   <time name="orth">    0.97    0.97</time>
   <time name="total">   22.75   22.76</time>
   <energy>
    <i name="e_fr_energy">   -325.51663407 </i>
    <i name="e_wo_entrp">   -325.47523949 </i>
    <i name="e_0_energy">   -325.49593678 </i>
   </energy>
  </scstep>
  <scstep>
   <time name="diag">    4.82    4.82</time>
   <time name="diis">   15.70   15.71</time>
   <time name="orth">    0.97    0.97</time>
   <time name="total">   22.73   22.74</time>
   <energy>
    <i name="e_fr_energy">   -326.37747700 </i>
    <i name="e_wo_entrp">   -326.33461894 </i>
    <i name="e_0_energy">   -326.35604797 </i>
   </energy>
  </scstep>
  <scstep>
   <time name="diag">    4.82    4.82</time>
   <time name="diis">   15.73   15.74</time>
   <time name="orth">    0.97    0.97</time>
   <time name="total">   22.76   22.77</time>
   <energy>
    <i name="e_fr_energy">   -326.72504852 </i>
    <i name="e_wo_entrp">   -326.68710049 </i>
    <i name="e_0_energy">   -326.70607450 </i>
   </energy>
  </scstep>
  <scstep>
   <time name="diag">    4.83    4.83</time>
   <time name="diis">   15.73   15.74</time>
   <time name="orth">    0.97    0.97</time>
   <time name="total">   22.76   22.78</time>
   <energy>
    <i name="e_fr_energy">   -326.87434216 </i>
    <i name="e_wo_entrp">   -326.83423675 </i>
    <i name="e_0_energy">   -326.85428946 </i>
   </energy>
  </scstep>
  <scstep>
   <time name="diag">    4.82    4.82</time>
   <time name="diis">   15.70   15.70</time>
   <time name="orth">    0.97    0.97</time>
   <time name="total">   22.73   22.74</time>
   <energy>
    <i name="e_fr_energy">   -326.96807435 </i>
    <i name="e_wo_entrp">   -326.93219425 </i>
    <i name="e_0_energy">   -326.95013430 </i>
   </energy>
  </scstep>
  <scstep>
   <time name="diag">    4.81    4.81</time>
   <time name="diis">   15.76   15.77</time>
   <time name="orth">    0.97    0.97</time>
   <time name="total">   22.77   22.78</time>
   <energy>
    <i name="e_fr_energy">   -326.95939285 </i>
    <i name="e_wo_entrp">   -326.91990666 </i>
    <i name="e_0_energy">   -326.93964976 </i>
   </energy>
  </scstep>
  <scstep>
   <time name="diag">    4.81    4.81</time>
   <time name="diis">   15.69   15.70</time>
   <time name="orth">    0.97    0.97</time>
   <time name="total">   22.70   22.71</time>
   <energy>
    <i name="e_fr_energy">   -326.99787894 </i>
    <i name="e_wo_entrp">   -326.95848832 </i>
    <i name="e_0_energy">   -326.97818363 </i>
   </energy>
  </scstep>
  <scstep>
   <time name="diag">    4.81    4.81</time>
   <time name="diis">   15.67   15.68</time>
   <time name="orth">    0.97    0.97</time>
   <time name="total">   22.68   22.69</time>
   <energy>
    <i name="e_fr_energy">   -327.03657875 </i>
    <i name="e_wo_entrp">   -326.99754680 </i>
    <i name="e_0_energy">   -327.01706278 </i>
   </energy>
  </scstep>
  <scstep>
   <time name="diag">    4.81    4.81</time>
   <time name="diis">   15.70   15.70</time>
   <time name="orth">    0.97    0.97</time>
   <time name="total">   22.71   22.72</time>
   <energy>
    <i name="e_fr_energy">   -327.07626365 </i>
    <i name="e_wo_entrp">   -327.03603013 </i>
    <i name="e_0_energy">   -327.05614689 </i>
   </energy>
  </scstep>
  <scstep>
   <time name="diag">    4.80    4.81</time>
   <time name="diis">   15.44   15.46</time>
   <time name="orth">    0.97    0.97</time>
   <time name="total">   22.45   22.47</time>
   <energy>
    <i name="e_fr_energy">   -327.10027754 </i>
    <i name="e_wo_entrp">   -327.06019364 </i>
    <i name="e_0_energy">   -327.08023559 </i>
   </energy>
  </scstep>
  <scstep>
   <time name="diag">    4.79    4.79</time>
   <time name="diis">   14.63   14.64</time>
   <time name="orth">    0.97    0.97</time>
   <time name="total">   21.63   21.64</time>
   <energy>
    <i name="e_fr_energy">   -327.12140883 </i>
    <i name="e_wo_entrp">   -327.08171589 </i>
    <i name="e_0_energy">   -327.10156236 </i>
   </energy>
  </scstep>
  <scstep>
   <time name="diag">    4.79    4.79</time>
   <time name="diis">   15.07   15.07</time>
   <time name="orth">    0.97    0.97</time>
   <time name="total">   22.06   22.07</time>
   <energy>
    <i name="e_fr_energy">   -327.14420641 </i>
    <i name="e_wo_entrp">   -327.10411961 </i>
    <i name="e_0_energy">   -327.12416301 </i>
   </energy>
  </scstep>
  <scstep>
   <time name="diag">    4.79    4.79</time>
   <time name="diis">   11.66   11.66</time>
   <time name="orth">    0.97    0.97</time>
   <time name="total">   18.65   18.66</time>
   <energy>
    <i name="e_fr_energy">   -327.16031254 </i>
    <i name="e_wo_entrp">   -327.12024984 </i>
    <i name="e_0_energy">   -327.14028119 </i>
   </energy>
  </scstep>
  <scstep>
   <time name="diag">    4.79    4.79</time>
   <time name="diis">   10.84   10.85</time>
   <time name="orth">    0.97    0.97</time>
   <time name="total">   17.84   17.85</time>
   <energy>
    <i name="e_fr_energy">   -327.17026256 </i>
    <i name="e_wo_entrp">   -327.13026357 </i>
    <i name="e_0_energy">   -327.15026306 </i>
   </energy>
  </scstep>
  <scstep>
   <time name="diag">    4.79    4.79</time>
   <time name="diis">   11.04   11.05</time>
   <time name="orth">    0.97    0.97</time>
   <time name="total">   18.03   18.04</time>
   <energy>
    <i name="e_fr_energy">   -327.18189652 </i>
    <i name="e_wo_entrp">   -327.14191205 </i>
    <i name="e_0_energy">   -327.16190429 </i>
   </energy>
  </scstep>
  <scstep>
   <time name="diag">    4.81    4.81</time>
   <time name="diis">   10.94   10.94</time>
   <time name="orth">    0.97    0.97</time>
   <time name="total">   17.95   17.95</time>
   <energy>
    <i name="e_fr_energy">   -327.19003381 </i>
    <i name="e_wo_entrp">   -327.15011030 </i>
    <i name="e_0_energy">   -327.17007206 </i>
   </energy>
  </scstep>
  <scstep>
   <time name="diag">    4.80    4.80</time>
   <time name="diis">   10.26   10.27</time>
   <time name="orth">    0.97    0.97</time>
   <time name="total">   17.25   17.27</time>
   <energy>
    <i name="e_fr_energy">   -327.19437987 </i>
    <i name="e_wo_entrp">   -327.15447898 </i>
    <i name="e_0_energy">   -327.17442943 </i>
   </energy>
  </scstep>
  <scstep>
   <time name="diag">    4.80    4.81</time>
   <time name="diis">   10.94   10.94</time>
   <time name="orth">    0.97    0.97</time>
   <time name="total">   17.93   17.95</time>
   <energy>
    <i name="e_fr_energy">   -327.19935404 </i>
    <i name="e_wo_entrp">   -327.15948033 </i>
    <i name="e_0_energy">   -327.17941719 </i>
   </energy>
  </scstep>
  <scstep>
   <time name="diag">    4.80    4.80</time>
   <time name="diis">   10.19   10.20</time>
   <time name="orth">    0.97    0.97</time>
   <time name="total">   17.18   17.20</time>
   <energy>
    <i name="e_fr_energy">   -327.20109567 </i>
    <i name="e_wo_entrp">   -327.16121599 </i>
    <i name="e_0_energy">   -327.18115583 </i>
   </energy>
  </scstep>
  <scstep>
   <time name="diag">    4.80    4.80</time>
   <time name="diis">   10.26   10.27</time>
   <time name="orth">    0.97    0.97</time>
   <time name="total">   17.26   17.27</time>
   <energy>
    <i name="e_fr_energy">   -327.20193742 </i>
    <i name="e_wo_entrp">   -327.16202124 </i>
    <i name="e_0_energy">   -327.18197933 </i>
   </energy>
  </scstep>
  <scstep>
   <time name="diag">    4.81    4.81</time>
   <time name="diis">    9.45    9.45</time>
   <time name="orth">    0.97    0.97</time>
   <time name="total">   16.45   16.46</time>
   <energy>
    <i name="e_fr_energy">   -327.20219014 </i>
    <i name="e_wo_entrp">   -327.16225710 </i>
    <i name="e_0_energy">   -327.18222362 </i>
   </energy>
  </scstep>
  <scstep>
   <time name="diag">    4.80    4.81</time>
   <time name="diis">    9.21    9.22</time>
   <time name="orth">    0.97    0.97</time>
   <time name="total">   16.21   16.22</time>
   <energy>
    <i name="e_fr_energy">   -327.20206388 </i>
    <i name="e_wo_entrp">   -327.16210481 </i>
    <i name="e_0_energy">   -327.18208434 </i>
   </energy>
  </scstep>
  <scstep>
   <time name="diag">    4.81    4.81</time>
   <time name="diis">    8.71    8.71</time>
   <time name="orth">    0.97    0.97</time>
   <time name="total">   15.71   15.72</time>
   <energy>
    <i name="e_fr_energy">   -327.20226772 </i>
    <i name="e_wo_entrp">   -327.16227253 </i>
    <i name="e_0_energy">   -327.18227013 </i>
   </energy>
  </scstep>
  <scstep>
   <time name="diag">    4.82    4.82</time>
   <time name="diis">    7.98    7.99</time>
   <time name="orth">    0.96    0.97</time>
   <time name="total">   14.08   14.08</time>
   <energy>
    <i name="alphaZ">    990.65221584 </i>
    <i name="ewald">  63486.37913263 </i>
    <i name="hartreedc"> -86774.14344143 </i>
    <i name="XCdc">    609.05935782 </i>
    <i name="pawpsdc">  30700.28409637 </i>
    <i name="pawaedc"> -30143.56641347 </i>
    <i name="eentropy">     -0.04000943 </i>
    <i name="bandstr">  -2138.40461550 </i>
    <i name="atom">  22942.57734542 </i>
    <i name="e_fr_energy">   -327.20233176 </i>
    <i name="e_wo_entrp">   -327.16232232 </i>
    <i name="e_0_energy">   -327.18232704 </i>
   </energy>
  </scstep>
  <structure>
   <crystal>
    <varray name="basis" >
     <v>       6.36215693       0.00000000       0.00000000 </v>
     <v>       0.00000000       6.38448299       0.00000000 </v>
     <v>       0.00000000       0.00000000      22.02159841 </v>
    </varray>
    <i name="volume">    894.49712699 </i>
    <varray name="rec_basis" >
     <v>       0.15717940       0.00000000       0.00000000 </v>
     <v>       0.00000000       0.15662975       0.00000000 </v>
     <v>       0.00000000       0.00000000       0.04540996 </v>
    </varray>
   </crystal>
   <varray name="positions" >
    <v>       0.08911000       0.35546000       0.00000000 </v>
    <v>       0.58911000       0.35546000       0.00000000 </v>
    <v>       0.33911000       0.04693000       0.05551000 </v>
    <v>       0.83911000       0.04693000       0.05551000 </v>
    <v>       0.33911000       0.66399000       0.05551000 </v>
    <v>       0.83911000       0.66399000       0.05551000 </v>
    <v>       0.08911000       0.35546000       0.11102000 </v>
    <v>       0.58911000       0.35546000       0.11102000 </v>
    <v>       0.58911000       0.85546000       0.14496000 </v>
    <v>       0.08911000       0.85546000       0.14496000 </v>
    <v>       0.33911000       0.16399000       0.20047000 </v>
    <v>       0.83911000       0.16399000       0.20047000 </v>
    <v>       0.33911000       0.54693000       0.20047000 </v>
    <v>       0.83911000       0.54693000       0.20047000 </v>
    <v>       0.08911000       0.85546000       0.25598000 </v>
    <v>       0.58911000       0.85546000       0.25598000 </v>
    <v>       0.08914000       0.35542000       0.28947000 </v>
    <v>       0.58914000       0.35542000       0.28947000 </v>
    <v>       0.33913000       0.04670000       0.34597000 </v>
    <v>       0.83913000       0.04670000       0.34597000 </v>
    <v>       0.33911000       0.66418000       0.34595000 </v>
    <v>       0.83911000       0.66418000       0.34595000 </v>
    <v>       0.08916000       0.35571000       0.39990000 </v>
    <v>       0.58916000       0.35571000       0.39990000 </v>
    <v>       0.08915000       0.85549000       0.43609000 </v>
    <v>       0.58915000       0.85549000       0.43609000 </v>
    <v>       0.33914000       0.16538000       0.49406000 </v>
    <v>       0.83914000       0.16538000       0.49406000 </v>
    <v>       0.33915000       0.54556000       0.49405000 </v>
    <v>       0.83915000       0.54556000       0.49405000 </v>
    <v>       0.08915000       0.85548000       0.54665000 </v>
    <v>       0.58915000       0.85548000       0.54665000 </v>
    <v>       0.33915000       0.85545000       0.49288000 </v>
    <v>       0.58913000       0.35545000       0.48811000 </v>
    <v>       0.33911000       0.35546000       0.05551000 </v>
    <v>       0.83911000       0.35546000       0.05551000 </v>
    <v>       0.08911000       0.85546000       0.05551000 </v>
    <v>       0.58911000       0.85546000       0.05551000 </v>
    <v>       0.08911000       0.35546000       0.20047000 </v>
    <v>       0.58911000       0.35546000       0.20047000 </v>
    <v>       0.33911000       0.85546000       0.20047000 </v>
    <v>       0.83911000       0.85546000       0.20047000 </v>
    <v>       0.83914000       0.35543000       0.34488000 </v>
    <v>       0.33914000       0.35543000       0.34488000 </v>
    <v>       0.08911000       0.85543000       0.34634000 </v>
    <v>       0.58911000       0.85543000       0.34634000 </v>
    <v>       0.08913000       0.35545000       0.48811000 </v>
    <v>       0.83915000       0.85545000       0.49288000 </v>
   </varray>
  </structure>
  <varray name="forces" >
   <v>       0.00116983      -0.00086450       0.62510694 </v>
   <v>      -0.00120654      -0.00095793       0.63925350 </v>
   <v>       0.00059511       0.01647814      -0.64002812 </v>
   <v>       0.00642367       0.02009419      -0.63884614 </v>
   <v>      -0.00403295      -0.01458971      -0.64096811 </v>
   <v>       0.00181555      -0.01824248      -0.63976844 </v>
   <v>      -0.00122778      -0.00025202       0.23714132 </v>
   <v>      -0.00446029      -0.00014984       0.23790383 </v>
   <v>       0.00971347       0.00124390      -0.12467136 </v>
   <v>      -0.01247651       0.00085951      -0.16893919 </v>
   <v>      -0.00279284       0.05085809      -0.03886880 </v>
   <v>       0.00300997       0.04732615      -0.03595090 </v>
   <v>      -0.00076388      -0.05057229      -0.03968172 </v>
   <v>       0.00539732      -0.04702712      -0.03680072 </v>
   <v>       0.03506925       0.00122756       0.37010160 </v>
   <v>      -0.03379750       0.00109933       0.43377521 </v>
   <v>       0.00981351      -0.00172479      -0.10264336 </v>
   <v>      -0.00914964      -0.00135372       0.04486376 </v>
   <v>       0.00038888       0.05257503       0.00685651 </v>
   <v>       0.00003141       0.04937487      -0.01996379 </v>
   <v>       0.00170680      -0.05114615       0.00529948 </v>
   <v>       0.00120933      -0.04808424      -0.02140999 </v>
   <v>       0.02402107       0.00129757       0.05100584 </v>
   <v>      -0.02687379       0.00530387      -2.34585852 </v>
   <v>       0.30929616       0.00039391      -0.15456872 </v>
   <v>      -0.30317531       0.00035970      -0.20870457 </v>
   <v>      -0.59870717      -0.40185151       0.30894261 </v>
   <v>       0.54829933      -0.43726616       0.38112792 </v>
   <v>      -0.59788608       0.40045835       0.30971932 </v>
   <v>       0.54828223       0.43491613       0.38177505 </v>
   <v>       0.52190496       0.00009567      -0.69202677 </v>
   <v>      -0.55149120       0.00078296      -0.84196281 </v>
   <v>       0.35006120      -0.00073200       1.47083387 </v>
   <v>      -0.26360587      -0.00414130       1.78388890 </v>
   <v>      -0.01628170      -0.00140673      -0.86455222 </v>
   <v>       0.01332458      -0.00135771      -0.87049320 </v>
   <v>       0.00354038      -0.00018938       1.52167591 </v>
   <v>      -0.00767836      -0.00029347       1.49458944 </v>
   <v>      -0.00030810      -0.00082066      -0.28061399 </v>
   <v>       0.01114215      -0.00119896      -0.31055519 </v>
   <v>      -0.00182429      -0.00141649      -0.22931915 </v>
   <v>      -0.00358290      -0.00152892      -0.25347112 </v>
   <v>      -0.60482172      -0.00013946       0.04355079 </v>
   <v>       0.60399810       0.00009091       0.04876329 </v>
   <v>      -0.10087166       0.00157033       0.20123254 </v>
   <v>       0.10646898       0.00141717       0.16615765 </v>
   <v>       0.30556416      -0.00022509      -0.65429979 </v>
   <v>      -0.27523133      -0.00029071       0.09140142 </v>
  </varray>
  <varray name="stress" >
   <v>     -22.85837786       0.02000367      -0.16881033 </v>
   <v>       0.02000387     -11.85266658      -0.02062429 </v>
   <v>      -0.16881055      -0.02062432       2.24287727 </v>
  </varray>
  <energy>
   <i name="e_fr_energy">   -336.93253563 </i>
   <i name="e_wo_entrp">   -336.91253092 </i>
   <i name="e_0_energy">     -0.04000943 </i>
  </energy>
  <time name="totalsc"> 1007.43 1008.05</time>
 </calculation>
 <calculation>
  <scstep>
   <time name="dav">   29.47   29.48</time>
   <time name="total">   30.69   30.70</time>
   <energy>
    <i name="alphaZ">    990.65221584 </i>
    <i name="ewald">  63456.14025946 </i>
    <i name="hartreedc"> -86743.34763525 </i>
    <i name="XCdc">    609.06845914 </i>
    <i name="pawpsdc">  30700.37019063 </i>
    <i name="pawaedc"> -30143.65268291 </i>
    <i name="eentropy">     -0.03782623 </i>
    <i name="bandstr">  -2139.10716212 </i>
    <i name="atom">  22942.57734542 </i>
    <i name="e_fr_energy">   -327.33683602 </i>
    <i name="e_wo_entrp">   -327.29900979 </i>
    <i name="e_0_energy">   -327.31792290 </i>
   </energy>
  </scstep>
  <scstep>
   <time name="diag">    4.78    4.79</time>
   <time name="diis">   15.51   15.51</time>
   <time name="orth">    0.97    0.97</time>
   <time name="total">   22.47   22.49</time>
   <energy>
    <i name="e_fr_energy">   -327.44229565 </i>
    <i name="e_wo_entrp">   -327.39859907 </i>
    <i name="e_0_energy">   -327.42044736 </i>
   </energy>
  </scstep>
  <scstep>
   <time name="diag">    4.78    4.78</time>
   <time name="diis">   15.14   15.14</time>
   <time name="orth">    0.97    0.97</time>
   <time name="total">   22.10   22.11</time>
   <energy>
    <i name="e_fr_energy">   -327.35740965 </i>
    <i name="e_wo_entrp">   -327.31673246 </i>
    <i name="e_0_energy">   -327.33707105 </i>
   </energy>
  </scstep>
  <scstep>
   <time name="diag">    4.78    4.78</time>
   <time name="diis">   14.79   14.80</time>
   <time name="orth">    0.97    0.97</time>
   <time name="total">   21.76   21.77</time>
   <energy>
    <i name="e_fr_energy">   -327.36085957 </i>
    <i name="e_wo_entrp">   -327.32008812 </i>
    <i name="e_0_energy">   -327.34047384 </i>
   </energy>
  </scstep>
  <scstep>
   <time name="diag">    4.78    4.79</time>
   <time name="diis">   15.28   15.29</time>
   <time name="orth">    0.97    0.97</time>
   <time name="total">   22.25   22.26</time>
   <energy>
    <i name="e_fr_energy">   -327.37915436 </i>
    <i name="e_wo_entrp">   -327.33722789 </i>
    <i name="e_0_energy">   -327.35819112 </i>
   </energy>
  </scstep>
  <scstep>
   <time name="diag">    4.78    4.78</time>
   <time name="diis">   15.61   15.62</time>
   <time name="orth">    0.97    0.97</time>
   <time name="total">   22.57   22.60</time>
   <energy>
    <i name="e_fr_energy">   -327.36065801 </i>
    <i name="e_wo_entrp">   -327.31924122 </i>
    <i name="e_0_energy">   -327.33994962 </i>
   </energy>
  </scstep>
  <scstep>
   <time name="diag">    4.80    4.80</time>
   <time name="diis">   15.63   15.64</time>
   <time name="orth">    0.97    0.97</time>
   <time name="total">   22.61   22.63</time>
   <energy>
    <i name="e_fr_energy">   -327.35292463 </i>
    <i name="e_wo_entrp">   -327.31582516 </i>
    <i name="e_0_energy">   -327.33437490 </i>
   </energy>
  </scstep>
  <scstep>
   <time name="diag">    4.80    4.80</time>
   <time name="diis">   15.22   15.22</time>
   <time name="orth">    0.97    0.97</time>
   <time name="total">   22.20   22.21</time>
   <energy>
    <i name="e_fr_energy">   -327.34598978 </i>
    <i name="e_wo_entrp">   -327.30665216 </i>
    <i name="e_0_energy">   -327.32632097 </i>
   </energy>
  </scstep>
  <scstep>
   <time name="diag">    4.79    4.80</time>
   <time name="diis">   13.52   13.53</time>
   <time name="orth">    0.97    0.97</time>
   <time name="total">   20.50   20.51</time>
   <energy>
    <i name="e_fr_energy">   -327.34503745 </i>
    <i name="e_wo_entrp">   -327.30627612 </i>
    <i name="e_0_energy">   -327.32565678 </i>
   </energy>
  </scstep>
  <scstep>
   <time name="diag">    4.79    4.80</time>
   <time name="diis">   10.22   10.23</time>
   <time name="orth">    0.97    0.97</time>
   <time name="total">   16.29   16.30</time>
   <energy>
    <i name="alphaZ">    990.65221584 </i>
    <i name="ewald">  63456.14025946 </i>
    <i name="hartreedc"> -86745.89162997 </i>
    <i name="XCdc">    609.11919410 </i>
    <i name="pawpsdc">  30714.25030500 </i>
    <i name="pawaedc"> -30157.45903652 </i>
    <i name="eentropy">     -0.03892739 </i>
    <i name="bandstr">  -2136.69477022 </i>
    <i name="atom">  22942.57734542 </i>
    <i name="e_fr_energy">   -327.34504428 </i>
    <i name="e_wo_entrp">   -327.30611688 </i>
    <i name="e_0_energy">   -327.32558058 </i>
   </energy>
  </scstep>
  <structure>
   <crystal>
    <varray name="basis" >
     <v>       6.36215693       0.00000000       0.00000000 </v>
     <v>       0.00000000       6.38448299       0.00000000 </v>
     <v>       0.00000000       0.00000000      22.02159841 </v>
    </varray>
    <i name="volume">    894.49712699 </i>
    <varray name="rec_basis" >
     <v>       0.15717940       0.00000000       0.00000000 </v>
     <v>       0.00000000       0.15662975       0.00000000 </v>
     <v>       0.00000000       0.00000000       0.04540996 </v>
    </varray>
   </crystal>
   <varray name="positions" >
    <v>       0.08911000       0.35546000       0.00000000 </v>
    <v>       0.58911000       0.35546000       0.00000000 </v>
    <v>       0.33911000       0.04693000       0.05551000 </v>
    <v>       0.83911000       0.04693000       0.05551000 </v>
    <v>       0.33911000       0.66399000       0.05551000 </v>
    <v>       0.83911000       0.66399000       0.05551000 </v>
    <v>       0.08911000       0.35546000       0.11102000 </v>
    <v>       0.58911000       0.35546000       0.11102000 </v>
    <v>       0.58911000       0.85546000       0.14496000 </v>
    <v>       0.08911000       0.85546000       0.14496000 </v>
    <v>       0.33911000       0.16399000       0.20047000 </v>
    <v>       0.83911000       0.16399000       0.20047000 </v>
    <v>       0.33911000       0.54693000       0.20047000 </v>
    <v>       0.83911000       0.54693000       0.20047000 </v>
    <v>       0.08911000       0.85546000       0.25598000 </v>
    <v>       0.58911000       0.85546000       0.25598000 </v>
    <v>       0.08915488       0.35541739       0.28942503 </v>
    <v>       0.58912612       0.35541795       0.28948966 </v>
    <v>       0.33913059       0.04677945       0.34597300 </v>
    <v>       0.83913005       0.04677462       0.34596125 </v>
    <v>       0.33911259       0.66410271       0.34595232 </v>
    <v>       0.83911183       0.66410733       0.34594062 </v>
    <v>       0.08919643       0.35571196       0.39992235 </v>
    <v>       0.58911924       0.35571802       0.39887219 </v>
    <v>       0.08961906       0.85549060       0.43602228 </v>
    <v>       0.58869022       0.85549054       0.43599856 </v>
    <v>       0.33823203       0.16477270       0.49419536 </v>
    <v>       0.83997152       0.16471918       0.49422699 </v>
    <v>       0.33824328       0.54616519       0.49418570 </v>
    <v>       0.83998150       0.54621727       0.49421727 </v>
    <v>       0.08994150       0.85548014       0.54634680 </v>
    <v>       0.58831364       0.85548118       0.54628110 </v>
    <v>       0.33968089       0.85544889       0.49352443 </v>
    <v>       0.58873023       0.35544374       0.48889159 </v>
    <v>       0.33911000       0.35546000       0.05551000 </v>
    <v>       0.83911000       0.35546000       0.05551000 </v>
    <v>       0.08911000       0.85546000       0.05551000 </v>
    <v>       0.58911000       0.85546000       0.05551000 </v>
    <v>       0.08911000       0.35546000       0.20047000 </v>
    <v>       0.58911000       0.35546000       0.20047000 </v>
    <v>       0.33911000       0.85546000       0.20047000 </v>
    <v>       0.83911000       0.85546000       0.20047000 </v>
    <v>       0.83822276       0.35542979       0.34489908 </v>
    <v>       0.34005599       0.35543014       0.34490137 </v>
    <v>       0.08895702       0.85543237       0.34642817 </v>
    <v>       0.58927147       0.85543214       0.34641280 </v>
    <v>       0.08959340       0.35544966       0.48782333 </v>
    <v>       0.83873260       0.85544956       0.49292005 </v>
   </varray>
  </structure>
  <varray name="forces" >
   <v>       0.00065418      -0.00086115       0.62298802 </v>
   <v>      -0.00112670      -0.00095560       0.64063592 </v>
   <v>       0.00054136       0.01831676      -0.64053496 </v>
   <v>       0.00665870       0.02180268      -0.63954255 </v>
   <v>      -0.00408347      -0.01642618      -0.64146515 </v>
   <v>       0.00206150      -0.01995466      -0.64046157 </v>
   <v>      -0.00086389      -0.00020624       0.23569836 </v>
   <v>      -0.00401496      -0.00013606       0.23920456 </v>
   <v>       0.00884934       0.00128440      -0.11960360 </v>
   <v>      -0.01101606       0.00087368      -0.16616086 </v>
   <v>      -0.00362359       0.05326437      -0.03926372 </v>
   <v>       0.00382316       0.04874497      -0.03581353 </v>
   <v>      -0.00161965      -0.05297463      -0.04005685 </v>
   <v>       0.00623836      -0.04844101      -0.03664148 </v>
   <v>       0.02550094       0.00126762       0.39397984 </v>
   <v>      -0.02551486       0.00112937       0.45675623 </v>
   <v>       0.00907271      -0.00178071       0.01609667 </v>
   <v>      -0.00929263      -0.00111007      -0.05580839 </v>
   <v>       0.01897347       0.02278195       0.00707329 </v>
   <v>      -0.01907219       0.03377061      -0.01267743 </v>
   <v>       0.01994981      -0.02128112       0.00550330 </v>
   <v>      -0.01794020      -0.03238835      -0.01413894 </v>
   <v>       0.01627526       0.00114933      -0.06707573 </v>
   <v>      -0.02137642       0.00368440      -1.47975977 </v>
   <v>       0.24577780      -0.00055933      -0.01757922 </v>
   <v>      -0.25093530       0.00030239      -0.08878711 </v>
   <v>      -0.48308055      -0.31128650       0.30294232 </v>
   <v>       0.44731530      -0.32348215       0.33178383 </v>
   <v>      -0.48388199       0.30972958       0.30489595 </v>
   <v>       0.44999762       0.32211142       0.33288180 </v>
   <v>       0.44707705      -0.00029362      -0.52525598 </v>
   <v>      -0.48720919      -0.00094077      -0.59668513 </v>
   <v>       0.18698115       0.00191005       1.07787133 </v>
   <v>      -0.14191066      -0.00281434       1.29922169 </v>
   <v>      -0.02170864      -0.00139965      -0.86664611 </v>
   <v>       0.01894642      -0.00135575      -0.87256171 </v>
   <v>       0.00261554      -0.00017975       1.52151577 </v>
   <v>      -0.00692230      -0.00030288       1.48931258 </v>
   <v>      -0.00019275      -0.00094001      -0.27768933 </v>
   <v>       0.01160606      -0.00125383      -0.31620708 </v>
   <v>      -0.00995359      -0.00142266      -0.22447828 </v>
   <v>       0.00493434      -0.00152729      -0.25220605 </v>
   <v>      -0.23283717       0.00014736      -0.13869501 </v>
   <v>       0.23357406       0.00027218      -0.14122974 </v>
   <v>      -0.02404686       0.00086005       0.12851946 </v>
   <v>       0.03228029       0.00072722       0.08258460 </v>
   <v>       0.15267098       0.00026417      -0.46078910 </v>
   <v>      -0.09015179      -0.00012023      -0.08165114 </v>
  </varray>
  <varray name="stress" >
   <v>     -22.77563042       0.02718383      -0.14720166 </v>
   <v>       0.02718382     -11.62873707      -0.02002221 </v>
   <v>      -0.14720162      -0.02002207       2.25695004 </v>
  </varray>
  <energy>
   <i name="e_fr_energy">   -337.07238631 </i>
   <i name="e_wo_entrp">   -337.05292261 </i>
   <i name="e_0_energy">     -0.03892739 </i>
  </energy>
  <time name="totalsc">  254.54  254.70</time>
 </calculation>
 <calculation>
  <scstep>
   <time name="dav">   28.97   29.00</time>
   <time name="total">   30.22   30.25</time>
   <energy>
    <i name="alphaZ">    990.65221584 </i>
    <i name="ewald">  63407.16265036 </i>
    <i name="hartreedc"> -86695.69030222 </i>
    <i name="XCdc">    609.14777927 </i>
    <i name="pawpsdc">  30713.73442640 </i>
    <i name="pawaedc"> -30156.94457743 </i>
    <i name="eentropy">     -0.03921465 </i>
    <i name="bandstr">  -2138.04713522 </i>
    <i name="atom">  22942.57734542 </i>
    <i name="e_fr_energy">   -327.44681223 </i>
    <i name="e_wo_entrp">   -327.40759757 </i>
    <i name="e_0_energy">   -327.42720490 </i>
   </energy>
  </scstep>
  <scstep>
   <time name="diag">    4.81    4.82</time>
   <time name="diis">   15.68   15.69</time>
   <time name="orth">    0.97    0.97</time>
   <time name="total">   22.71   22.72</time>
   <energy>
    <i name="e_fr_energy">   -327.66137151 </i>
    <i name="e_wo_entrp">   -327.61767811 </i>
    <i name="e_0_energy">   -327.63952481 </i>
   </energy>
  </scstep>
  <scstep>
   <time name="diag">    4.81    4.81</time>
   <time name="diis">   15.44   15.44</time>
   <time name="orth">    0.97    0.98</time>
   <time name="total">   22.46   22.47</time>
   <energy>
    <i name="e_fr_energy">   -327.49903456 </i>
    <i name="e_wo_entrp">   -327.45857047 </i>
    <i name="e_0_energy">   -327.47880251 </i>
   </energy>
  </scstep>
  <scstep>
   <time name="diag">    4.81    4.81</time>
   <time name="diis">   15.44   15.45</time>
   <time name="orth">    0.97    0.97</time>
   <time name="total">   22.47   22.48</time>
   <energy>
    <i name="e_fr_energy">   -327.52163129 </i>
    <i name="e_wo_entrp">   -327.48209037 </i>
    <i name="e_0_energy">   -327.50186083 </i>
   </energy>
  </scstep>
  <scstep>
   <time name="diag">    4.81    4.82</time>
   <time name="diis">   15.66   15.67</time>
   <time name="orth">    0.97    0.97</time>
   <time name="total">   22.69   22.70</time>
   <energy>
    <i name="e_fr_energy">   -327.52533560 </i>
    <i name="e_wo_entrp">   -327.48238031 </i>
    <i name="e_0_energy">   -327.50385795 </i>
   </energy>
  </scstep>
  <scstep>
   <time name="diag">    4.81    4.81</time>
   <time name="diis">   15.67   15.68</time>
   <time name="orth">    0.97    0.97</time>
   <time name="total">   22.69   22.71</time>
   <energy>
    <i name="e_fr_energy">   -327.51014904 </i>
    <i name="e_wo_entrp">   -327.47022528 </i>
    <i name="e_0_energy">   -327.49018716 </i>
   </energy>
  </scstep>
  <scstep>
   <time name="diag">    4.81    4.82</time>
   <time name="diis">   15.66   15.67</time>
   <time name="orth">    0.97    0.97</time>
   <time name="total">   22.68   22.70</time>
   <energy>
    <i name="e_fr_energy">   -327.49364978 </i>
    <i name="e_wo_entrp">   -327.45819833 </i>
    <i name="e_0_energy">   -327.47592405 </i>
   </energy>
  </scstep>
  <scstep>
   <time name="diag">    4.80    4.80</time>
   <time name="diis">   15.68   15.69</time>
   <time name="orth">    0.97    0.97</time>
   <time name="total">   22.69   22.70</time>
   <energy>
    <i name="e_fr_energy">   -327.47742558 </i>
    <i name="e_wo_entrp">   -327.43857120 </i>
    <i name="e_0_energy">   -327.45799839 </i>
   </energy>
  </scstep>
  <scstep>
   <time name="diag">    4.80    4.80</time>
   <time name="diis">   14.84   14.85</time>
   <time name="orth">    0.97    0.97</time>
   <time name="total">   21.85   21.86</time>
   <energy>
    <i name="e_fr_energy">   -327.47488676 </i>
    <i name="e_wo_entrp">   -327.43690137 </i>
    <i name="e_0_energy">   -327.45589406 </i>
   </energy>
  </scstep>
  <scstep>
   <time name="diag">    4.79    4.80</time>
   <time name="diis">   12.29   12.29</time>
   <time name="orth">    0.97    0.97</time>
   <time name="total">   19.29   19.31</time>
   <energy>
    <i name="e_fr_energy">   -327.47435976 </i>
    <i name="e_wo_entrp">   -327.43598811 </i>
    <i name="e_0_energy">   -327.45517394 </i>
   </energy>
  </scstep>
  <scstep>
   <time name="diag">    4.80    4.80</time>
   <time name="diis">   10.33   10.33</time>
   <time name="orth">    0.97    0.98</time>
   <time name="total">   17.34   17.35</time>
   <energy>
    <i name="e_fr_energy">   -327.47424855 </i>
    <i name="e_wo_entrp">   -327.43587832 </i>
    <i name="e_0_energy">   -327.45506343 </i>
   </energy>
  </scstep>
  <scstep>
   <time name="diag">    4.80    4.80</time>
   <time name="diis">   10.16   10.17</time>
   <time name="orth">    0.97    0.97</time>
   <time name="total">   16.24   16.25</time>
   <energy>
    <i name="alphaZ">    990.65221584 </i>
    <i name="ewald">  63407.16265036 </i>
    <i name="hartreedc"> -86700.28388119 </i>
    <i name="XCdc">    609.23361888 </i>
    <i name="pawpsdc">  30746.44355576 </i>
    <i name="pawaedc"> -30189.59091729 </i>
    <i name="eentropy">     -0.03842930 </i>
    <i name="bandstr">  -2133.63034719 </i>
    <i name="atom">  22942.57734542 </i>
    <i name="e_fr_energy">   -327.47418871 </i>
    <i name="e_wo_entrp">   -327.43575941 </i>
    <i name="e_0_energy">   -327.45497406 </i>
   </energy>
  </scstep>
  <structure>
   <crystal>
    <varray name="basis" >
     <v>       6.36215693       0.00000000       0.00000000 </v>
     <v>       0.00000000       6.38448299       0.00000000 </v>
     <v>       0.00000000       0.00000000      22.02159841 </v>
    </varray>
    <i name="volume">    894.49712699 </i>
    <varray name="rec_basis" >
     <v>       0.15717940       0.00000000       0.00000000 </v>
     <v>       0.00000000       0.15662975       0.00000000 </v>
     <v>       0.00000000       0.00000000       0.04540996 </v>
    </varray>
   </crystal>
   <varray name="positions" >
    <v>       0.08911000       0.35546000       0.00000000 </v>
    <v>       0.58911000       0.35546000       0.00000000 </v>
    <v>       0.33911000       0.04693000       0.05551000 </v>
    <v>       0.83911000       0.04693000       0.05551000 </v>
    <v>       0.33911000       0.66399000       0.05551000 </v>
    <v>       0.83911000       0.66399000       0.05551000 </v>
    <v>       0.08911000       0.35546000       0.11102000 </v>
    <v>       0.58911000       0.35546000       0.11102000 </v>
    <v>       0.58911000       0.85546000       0.14496000 </v>
    <v>       0.08911000       0.85546000       0.14496000 </v>
    <v>       0.33911000       0.16399000       0.20047000 </v>
    <v>       0.83911000       0.16399000       0.20047000 </v>
    <v>       0.33911000       0.54693000       0.20047000 </v>
    <v>       0.83911000       0.54693000       0.20047000 </v>
    <v>       0.08911000       0.85546000       0.25598000 </v>
    <v>       0.58911000       0.85546000       0.25598000 </v>
    <v>       0.08917950       0.35541308       0.28935064 </v>
    <v>       0.58910317       0.35541457       0.28952217 </v>
    <v>       0.33913157       0.04691088       0.34597797 </v>
    <v>       0.83913013       0.04689804       0.34594678 </v>
    <v>       0.33911687       0.66397485       0.34595616 </v>
    <v>       0.83911487       0.66398713       0.34592510 </v>
    <v>       0.08925669       0.35571520       0.39995931 </v>
    <v>       0.58905183       0.35573127       0.39717207 </v>
    <v>       0.09039494       0.85549158       0.43591026 </v>
    <v>       0.58792969       0.85549144       0.43584730 </v>
    <v>       0.33673015       0.16376817       0.49441926 </v>
    <v>       0.84134695       0.16362612       0.49450320 </v>
    <v>       0.33674346       0.54716624       0.49441016 </v>
    <v>       0.84135688       0.54730445       0.49449395 </v>
    <v>       0.09125071       0.85548038       0.54584526 </v>
    <v>       0.58693020       0.85548314       0.54567091 </v>
    <v>       0.34055903       0.85544706       0.49459039 </v>
    <v>       0.58806896       0.35543339       0.49018443 </v>
    <v>       0.33911000       0.35546000       0.05551000 </v>
    <v>       0.83911000       0.35546000       0.05551000 </v>
    <v>       0.08911000       0.85546000       0.05551000 </v>
    <v>       0.58911000       0.85546000       0.05551000 </v>
    <v>       0.08911000       0.35546000       0.20047000 </v>
    <v>       0.58911000       0.35546000       0.20047000 </v>
    <v>       0.33911000       0.85546000       0.20047000 </v>
    <v>       0.83911000       0.85546000       0.20047000 </v>
    <v>       0.83670554       0.35542944       0.34493064 </v>
    <v>       0.34157115       0.35543036       0.34493671 </v>
    <v>       0.08870398       0.85543630       0.34657401 </v>
    <v>       0.58953855       0.85543568       0.34653322 </v>
    <v>       0.09035992       0.35544910       0.48734913 </v>
    <v>       0.83804217       0.85544883       0.49298629 </v>
   </varray>
  </structure>
  <varray name="forces" >
   <v>       0.00085301      -0.00080677       0.62005854 </v>
   <v>      -0.00211807      -0.00090298       0.64204767 </v>
   <v>       0.00035483       0.01751645      -0.64122564 </v>
   <v>       0.00628893       0.01858514      -0.64148214 </v>
   <v>      -0.00425082      -0.01546737      -0.64215087 </v>
   <v>       0.00170232      -0.01655857      -0.64239102 </v>
   <v>      -0.00042791      -0.00006684       0.23495311 </v>
   <v>      -0.00468582      -0.00005599       0.24239412 </v>
   <v>       0.00558711       0.00138883      -0.10797129 </v>
   <v>      -0.00816395       0.00092771      -0.15742908 </v>
   <v>      -0.00432941       0.05149194      -0.04151667 </v>
   <v>       0.00352171       0.04641255      -0.03678238 </v>
   <v>      -0.00238709      -0.05108719      -0.04226698 </v>
   <v>       0.00598476      -0.04599246      -0.03755986 </v>
   <v>       0.01056139       0.00137858       0.41751793 </v>
   <v>      -0.01322254       0.00125286       0.48333350 </v>
   <v>       0.00632613      -0.00019055       0.20701474 </v>
   <v>      -0.00759946      -0.00119643      -0.24426382 </v>
   <v>       0.05057745      -0.02906845       0.00491656 </v>
   <v>      -0.05149968       0.00776862      -0.00565376 </v>
   <v>       0.05044531       0.03183574       0.00294497 </v>
   <v>      -0.05124174      -0.00497968      -0.00693630 </v>
   <v>       0.00636927       0.00068992      -0.26612664 </v>
   <v>      -0.00789205       0.00501217      -0.16274018 </v>
   <v>       0.15315181      -0.00042201       0.20247313 </v>
   <v>      -0.17503469       0.00008258       0.10143713 </v>
   <v>      -0.29749300      -0.18658988       0.27922329 </v>
   <v>       0.29358520      -0.12306958       0.25228784 </v>
   <v>      -0.29969120       0.18073704       0.28020702 </v>
   <v>       0.29247601       0.11824397       0.25095068 </v>
   <v>       0.31589303      -0.00049182      -0.21398697 </v>
   <v>      -0.34243036       0.00045253      -0.14760442 </v>
   <v>      -0.11277432       0.00054862       0.40254310 </v>
   <v>       0.04809132      -0.00024764       0.72952776 </v>
   <v>      -0.03001121      -0.00134229      -0.86670759 </v>
   <v>       0.02699940      -0.00130761      -0.86958537 </v>
   <v>       0.00118058      -0.00011046       1.52604878 </v>
   <v>      -0.00564505      -0.00025160       1.48678203 </v>
   <v>       0.00008010      -0.00109796      -0.27279297 </v>
   <v>       0.01163698      -0.00129159      -0.32767024 </v>
   <v>      -0.02187844      -0.00135647      -0.21946131 </v>
   <v>       0.01744088      -0.00144803      -0.25335123 </v>
   <v>       0.43380580       0.00019243      -0.47365802 </v>
   <v>      -0.43625828       0.00125289      -0.49031107 </v>
   <v>       0.10273901      -0.00012218       0.02135646 </v>
   <v>      -0.09083381      -0.00043087      -0.05154760 </v>
   <v>      -0.10081251       0.00033041      -0.13447407 </v>
   <v>       0.22502912      -0.00014771      -0.39037090 </v>
  </varray>
  <varray name="stress" >
   <v>     -21.47377269       0.02563975      -0.02665183 </v>
   <v>       0.02563970     -10.97135433      -0.00956082 </v>
   <v>      -0.02665202      -0.00956078       3.73087389 </v>
  </varray>
  <energy>
   <i name="e_fr_energy">   -337.19678149 </i>
   <i name="e_wo_entrp">   -337.17756684 </i>
   <i name="e_0_energy">     -0.03842930 </i>
  </energy>
  <time name="totalsc">  294.71  294.92</time>
 </calculation>
 <calculation>
  <scstep>
   <time name="dav">   29.72   29.74</time>
   <time name="total">   30.95   30.97</time>
   <energy>
    <i name="alphaZ">    990.65221584 </i>
    <i name="ewald">  63386.64724665 </i>
    <i name="hartreedc"> -86679.15262896 </i>
    <i name="XCdc">    609.25174161 </i>
    <i name="pawpsdc">  30745.84678844 </i>
    <i name="pawaedc"> -30188.99730630 </i>
    <i name="eentropy">     -0.03995228 </i>
    <i name="bandstr">  -2134.26949528 </i>
    <i name="atom">  22942.57734542 </i>
    <i name="e_fr_energy">   -327.48404485 </i>
    <i name="e_wo_entrp">   -327.44409257 </i>
    <i name="e_0_energy">   -327.46406871 </i>
   </energy>
  </scstep>
  <scstep>
   <time name="diag">    4.83    4.83</time>
   <time name="diis">   15.62   15.63</time>
   <time name="orth">    0.97    0.97</time>
   <time name="total">   22.65   22.66</time>
   <energy>
    <i name="e_fr_energy">   -327.51722999 </i>
    <i name="e_wo_entrp">   -327.47723899 </i>
    <i name="e_0_energy">   -327.49723449 </i>
   </energy>
  </scstep>
  <scstep>
   <time name="diag">    4.82    4.82</time>
   <time name="diis">   15.06   15.06</time>
   <time name="orth">    0.97    0.97</time>
   <time name="total">   22.07   22.09</time>
   <energy>
    <i name="e_fr_energy">   -327.49345714 </i>
    <i name="e_wo_entrp">   -327.45365724 </i>
    <i name="e_0_energy">   -327.47355719 </i>
   </energy>
  </scstep>
  <scstep>
   <time name="diag">    4.83    4.83</time>
   <time name="diis">   14.91   14.92</time>
   <time name="orth">    0.97    0.97</time>
   <time name="total">   21.94   21.95</time>
   <energy>
    <i name="e_fr_energy">   -327.50435075 </i>
    <i name="e_wo_entrp">   -327.46565609 </i>
    <i name="e_0_energy">   -327.48500342 </i>
   </energy>
  </scstep>
  <scstep>
   <time name="diag">    4.82    4.82</time>
   <time name="diis">   14.69   14.70</time>
   <time name="orth">    0.97    0.97</time>
   <time name="total">   21.71   21.72</time>
   <energy>
    <i name="e_fr_energy">   -327.49567556 </i>
    <i name="e_wo_entrp">   -327.45656870 </i>
    <i name="e_0_energy">   -327.47612213 </i>
   </energy>
  </scstep>
  <scstep>
   <time name="diag">    4.82    4.82</time>
   <time name="diis">   15.45   15.46</time>
   <time name="orth">    0.97    0.97</time>
   <time name="total">   22.47   22.48</time>
   <energy>
    <i name="e_fr_energy">   -327.49569537 </i>
    <i name="e_wo_entrp">   -327.45510353 </i>
    <i name="e_0_energy">   -327.47539945 </i>
   </energy>
  </scstep>
  <scstep>
   <time name="diag">    4.82    4.82</time>
   <time name="diis">   15.01   15.01</time>
   <time name="orth">    0.97    0.97</time>
   <time name="total">   22.03   22.04</time>
   <energy>
    <i name="e_fr_energy">   -327.49134546 </i>
    <i name="e_wo_entrp">   -327.45266538 </i>
    <i name="e_0_energy">   -327.47200542 </i>
   </energy>
  </scstep>
  <scstep>
   <time name="diag">    4.82    4.82</time>
   <time name="diis">   14.08   14.08</time>
   <time name="orth">    0.97    0.97</time>
   <time name="total">   21.10   21.11</time>
   <energy>
    <i name="e_fr_energy">   -327.48973825 </i>
    <i name="e_wo_entrp">   -327.45000904 </i>
    <i name="e_0_energy">   -327.46987364 </i>
   </energy>
  </scstep>
  <scstep>
   <time name="diag">    4.82    4.82</time>
   <time name="diis">   10.55   10.55</time>
   <time name="orth">    0.97    0.97</time>
   <time name="total">   17.57   17.58</time>
   <energy>
    <i name="e_fr_energy">   -327.48958652 </i>
    <i name="e_wo_entrp">   -327.45005886 </i>
    <i name="e_0_energy">   -327.46982269 </i>
   </energy>
  </scstep>
  <scstep>
   <time name="diag">    4.81    4.81</time>
   <time name="diis">    9.16    9.16</time>
   <time name="orth">    0.97    0.97</time>
   <time name="total">   15.25   15.26</time>
   <energy>
    <i name="alphaZ">    990.65221584 </i>
    <i name="ewald">  63386.64724665 </i>
    <i name="hartreedc"> -86681.40192458 </i>
    <i name="XCdc">    609.28641291 </i>
    <i name="pawpsdc">  30765.02631249 </i>
    <i name="pawaedc"> -30208.16710155 </i>
    <i name="eentropy">     -0.03956235 </i>
    <i name="bandstr">  -2132.07056124 </i>
    <i name="atom">  22942.57734542 </i>
    <i name="e_fr_energy">   -327.48961641 </i>
    <i name="e_wo_entrp">   -327.45005406 </i>
    <i name="e_0_energy">   -327.46983524 </i>
   </energy>
  </scstep>
  <structure>
   <crystal>
    <varray name="basis" >
     <v>       6.36215693       0.00000000       0.00000000 </v>
     <v>       0.00000000       6.38448299       0.00000000 </v>
     <v>       0.00000000       0.00000000      22.02159841 </v>
    </varray>
    <i name="volume">    894.49712699 </i>
    <varray name="rec_basis" >
     <v>       0.15717940       0.00000000       0.00000000 </v>
     <v>       0.00000000       0.15662975       0.00000000 </v>
     <v>       0.00000000       0.00000000       0.04540996 </v>
    </varray>
   </crystal>
   <varray name="positions" >
    <v>       0.08911000       0.35546000       0.00000000 </v>
    <v>       0.58911000       0.35546000       0.00000000 </v>
    <v>       0.33911000       0.04693000       0.05551000 </v>
    <v>       0.83911000       0.04693000       0.05551000 </v>
    <v>       0.33911000       0.66399000       0.05551000 </v>
    <v>       0.83911000       0.66399000       0.05551000 </v>
    <v>       0.08911000       0.35546000       0.11102000 </v>
    <v>       0.58911000       0.35546000       0.11102000 </v>
    <v>       0.58911000       0.85546000       0.14496000 </v>
    <v>       0.08911000       0.85546000       0.14496000 </v>
    <v>       0.33911000       0.16399000       0.20047000 </v>
    <v>       0.83911000       0.16399000       0.20047000 </v>
    <v>       0.33911000       0.54693000       0.20047000 </v>
    <v>       0.83911000       0.54693000       0.20047000 </v>
    <v>       0.08911000       0.85546000       0.25598000 </v>
    <v>       0.58911000       0.85546000       0.25598000 </v>
    <v>       0.08919000       0.35541124       0.28931891 </v>
    <v>       0.58909338       0.35541313       0.28953604 </v>
    <v>       0.33913198       0.04696694       0.34598009 </v>
    <v>       0.83913016       0.04695069       0.34594061 </v>
    <v>       0.33911870       0.66392031       0.34595780 </v>
    <v>       0.83911616       0.66393586       0.34591848 </v>
    <v>       0.08928239       0.35571659       0.39997508 </v>
    <v>       0.58902307       0.35573693       0.39644684 </v>
    <v>       0.09072592       0.85549200       0.43586247 </v>
    <v>       0.58760527       0.85549183       0.43578278 </v>
    <v>       0.33608948       0.16333966       0.49451477 </v>
    <v>       0.84193368       0.16315984       0.49462103 </v>
    <v>       0.33610367       0.54759327       0.49450591 </v>
    <v>       0.84194359       0.54776823       0.49461198 </v>
    <v>       0.09180920       0.85548049       0.54563132 </v>
    <v>       0.58634006       0.85548398       0.54541061 </v>
    <v>       0.34093362       0.85544628       0.49504510 </v>
    <v>       0.58778688       0.35542897       0.49073593 </v>
    <v>       0.33911000       0.35546000       0.05551000 </v>
    <v>       0.83911000       0.35546000       0.05551000 </v>
    <v>       0.08911000       0.85546000       0.05551000 </v>
    <v>       0.58911000       0.85546000       0.05551000 </v>
    <v>       0.08911000       0.35546000       0.20047000 </v>
    <v>       0.58911000       0.35546000       0.20047000 </v>
    <v>       0.33911000       0.85546000       0.20047000 </v>
    <v>       0.83911000       0.85546000       0.20047000 </v>
    <v>       0.83605833       0.35542929       0.34494411 </v>
    <v>       0.34221748       0.35543046       0.34495178 </v>
    <v>       0.08859604       0.85543797       0.34663622 </v>
    <v>       0.58965248       0.85543720       0.34658459 </v>
[...]
       <r>   -20.6010     0.0000     0.0000 </r>
       <r>   -20.4895     0.0000     0.0000 </r>
       <r>   -20.3780     0.0000     0.0000 </r>
       <r>   -20.2666     0.0000     0.0000 </r>
       <r>   -20.1551     0.0078     0.0009 </r>
       <r>   -20.0436     0.4702     0.0533 </r>
       <r>   -19.9321     1.6458     0.2368 </r>
       <r>   -19.8207     2.0856     0.4693 </r>
       <r>   -19.7092     2.0437     0.6971 </r>
       <r>   -19.5977     3.9869     1.1415 </r>
       <r>   -19.4862     6.3320     1.8474 </r>
       <r>   -19.3748     5.1344     2.4197 </r>
       <r>   -19.2633     9.6606     3.4966 </r>
       <r>   -19.1518     6.9877     4.2756 </r>
       <r>   -19.0403    11.0669     5.5093 </r>
       <r>   -18.9289    12.6574     6.9203 </r>
       <r>   -18.8174    19.2400     9.0650 </r>
       <r>   -18.7059    18.4155    11.1179 </r>
       <r>   -18.5944    15.3929    12.8338 </r>
       <r>   -18.4830    22.9182    15.3886 </r>
       <r>   -18.3715    27.8773    18.4963 </r>
       <r>   -18.2600    24.9451    21.2770 </r>
       <r>   -18.1485    17.0867    23.1818 </r>
       <r>   -18.0371     7.9107    24.0636 </r>
       <r>   -17.9256    13.2881    25.5449 </r>
       <r>   -17.8141    11.5930    26.8372 </r>
       <r>   -17.7026     4.8286    27.3755 </r>
       <r>   -17.5912     3.6018    27.7770 </r>
       <r>   -17.4797     1.7857    27.9761 </r>
       <r>   -17.3682     0.2147    28.0000 </r>
       <r>   -17.2567     0.0001    28.0000 </r>
       <r>   -17.1453     0.0000    28.0000 </r>
       <r>   -17.0338     0.1401    28.0156 </r>
       <r>   -16.9223     6.2813    28.7158 </r>
       <r>   -16.8108     7.9223    29.5990 </r>
       <r>   -16.6994    13.2043    31.0709 </r>
       <r>   -16.5879     8.2102    31.9862 </r>
       <r>   -16.4764     0.1242    32.0000 </r>
       <r>   -16.3649     0.0000    32.0000 </r>
       <r>   -16.2535     0.0000    32.0000 </r>
       <r>   -16.1420     0.0000    32.0000 </r>
       <r>   -16.0305     0.0000    32.0000 </r>
       <r>   -15.9190     0.0000    32.0000 </r>
       <r>   -15.8076     0.0000    32.0000 </r>
       <r>   -15.6961     0.0000    32.0000 </r>
       <r>   -15.5846     0.0000    32.0000 </r>
       <r>   -15.4731     0.0000    32.0000 </r>
       <r>   -15.3617     0.0000    32.0000 </r>
       <r>   -15.2502     0.0000    32.0000 </r>
       <r>   -15.1387     0.0000    32.0000 </r>
       <r>   -15.0272     0.0000    32.0000 </r>
       <r>   -14.9158     0.0000    32.0000 </r>
       <r>   -14.8043     0.0000    32.0000 </r>
       <r>   -14.6928     0.0000    32.0000 </r>
       <r>   -14.5813     0.0000    32.0000 </r>
       <r>   -14.4699     0.0000    32.0000 </r>
       <r>   -14.3584     0.0000    32.0000 </r>
       <r>   -14.2469     0.0000    32.0000 </r>
       <r>   -14.1354     0.0000    32.0000 </r>
       <r>   -14.0240     0.0000    32.0000 </r>
       <r>   -13.9125     0.0000    32.0000 </r>
       <r>   -13.8010     0.0000    32.0000 </r>
       <r>   -13.6895     0.0000    32.0000 </r>
       <r>   -13.5781     0.0000    32.0000 </r>
       <r>   -13.4666     0.0000    32.0000 </r>
       <r>   -13.3551     0.0000    32.0000 </r>
       <r>   -13.2436     0.0000    32.0000 </r>
       <r>   -13.1322     0.0000    32.0000 </r>
       <r>   -13.0207     0.0000    32.0000 </r>
       <r>   -12.9092     0.0000    32.0000 </r>
       <r>   -12.7977     0.0000    32.0000 </r>
       <r>   -12.6863     0.0000    32.0000 </r>
       <r>   -12.5748     0.0000    32.0000 </r>
       <r>   -12.4633     0.0000    32.0000 </r>
       <r>   -12.3518     0.0000    32.0000 </r>
       <r>   -12.2404     0.0000    32.0000 </r>
       <r>   -12.1289     0.0000    32.0000 </r>
       <r>   -12.0174     0.0000    32.0000 </r>
       <r>   -11.9059     0.0000    32.0000 </r>
       <r>   -11.7945     0.0000    32.0000 </r>
       <r>   -11.6830     0.0000    32.0000 </r>
       <r>   -11.5715     0.0000    32.0000 </r>
       <r>   -11.4600     0.0000    32.0000 </r>
       <r>   -11.3486     0.0000    32.0000 </r>
       <r>   -11.2371     0.0000    32.0000 </r>
       <r>   -11.1256     0.0000    32.0000 </r>
       <r>   -11.0141     0.0000    32.0000 </r>
       <r>   -10.9027     0.0000    32.0000 </r>
       <r>   -10.7912     0.0000    32.0000 </r>
       <r>   -10.6797     0.0000    32.0000 </r>
       <r>   -10.5682     0.0000    32.0000 </r>
       <r>   -10.4568     0.0000    32.0000 </r>
       <r>   -10.3453     0.0000    32.0000 </r>
       <r>   -10.2338     0.0000    32.0000 </r>
       <r>   -10.1223     0.0000    32.0000 </r>
       <r>   -10.0109     0.0000    32.0000 </r>
       <r>    -9.8994     0.0000    32.0000 </r>
       <r>    -9.7879     0.0000    32.0000 </r>
       <r>    -9.6764     0.0000    32.0000 </r>
       <r>    -9.5650     0.0000    32.0000 </r>
       <r>    -9.4535     0.0000    32.0000 </r>
       <r>    -9.3420     0.0000    32.0000 </r>
       <r>    -9.2305     0.0000    32.0000 </r>
       <r>    -9.1191     0.0000    32.0000 </r>
       <r>    -9.0076     0.0000    32.0000 </r>
       <r>    -8.8961     0.0000    32.0000 </r>
       <r>    -8.7846     0.0053    32.0006 </r>
       <r>    -8.6732     0.7429    32.0834 </r>
       <r>    -8.5617     0.9776    32.1924 </r>
       <r>    -8.4502     2.2458    32.4427 </r>
       <r>    -8.3387     1.0509    32.5599 </r>
       <r>    -8.2273     0.9927    32.6705 </r>
       <r>    -8.1158     5.3295    33.2647 </r>
       <r>    -8.0043    11.9727    34.5993 </r>
       <r>    -7.8928     7.8648    35.4760 </r>
       <r>    -7.7814     1.3422    35.6257 </r>
       <r>    -7.6699     4.3227    36.1075 </r>
       <r>    -7.5584     9.8335    37.2037 </r>
       <r>    -7.4469     6.8358    37.9658 </r>
       <r>    -7.3355    11.8639    39.2883 </r>
       <r>    -7.2240    12.7694    40.7117 </r>
       <r>    -7.1125     8.3901    41.6470 </r>
       <r>    -7.0010    21.3170    44.0233 </r>
       <r>    -6.8896    30.6676    47.4420 </r>
       <r>    -6.7781    26.2394    50.3671 </r>
       <r>    -6.6666    15.9352    52.1434 </r>
       <r>    -6.5551    17.6337    54.1091 </r>
       <r>    -6.4437    17.1379    56.0196 </r>
       <r>    -6.3322    16.5748    57.8673 </r>
       <r>    -6.2207    14.7387    59.5103 </r>
       <r>    -6.1092    11.7232    60.8171 </r>
       <r>    -5.9978    15.7514    62.5730 </r>
       <r>    -5.8863    13.5147    64.0796 </r>
       <r>    -5.7748    11.5339    65.3653 </r>
       <r>    -5.6633    16.3574    67.1887 </r>
       <r>    -5.5519    14.0755    68.7578 </r>
       <r>    -5.4404    10.0129    69.8740 </r>
       <r>    -5.3289     9.9813    70.9867 </r>
       <r>    -5.2174    10.0489    72.1069 </r>
       <r>    -5.1060    10.7561    73.3059 </r>
       <r>    -4.9945    12.2131    74.6674 </r>
       <r>    -4.8830    15.1796    76.3595 </r>
       <r>    -4.7715    16.9812    78.2525 </r>
       <r>    -4.6601    13.6350    79.7724 </r>
       <r>    -4.5486    18.0485    81.7844 </r>
       <r>    -4.4371    20.3506    84.0530 </r>
       <r>    -4.3256    17.1985    85.9702 </r>
       <r>    -4.2142    20.5749    88.2638 </r>
       <r>    -4.1027    21.0317    90.6083 </r>
       <r>    -3.9912    22.1328    93.0755 </r>
       <r>    -3.8797    18.3919    95.1258 </r>
       <r>    -3.7683    22.5713    97.6419 </r>
       <r>    -3.6568    17.4183    99.5836 </r>
       <r>    -3.5453    14.2706   101.1744 </r>
       <r>    -3.4338    17.0487   103.0749 </r>
       <r>    -3.3224    17.3141   105.0050 </r>
       <r>    -3.2109    12.9197   106.4453 </r>
       <r>    -3.0994    12.8281   107.8753 </r>
       <r>    -2.9879    14.2201   109.4605 </r>
       <r>    -2.8765    12.4807   110.8517 </r>
       <r>    -2.7650    15.4439   112.5733 </r>
       <r>    -2.6535    12.9664   114.0188 </r>
       <r>    -2.5420    12.0735   115.3647 </r>
       <r>    -2.4306     9.4442   116.4175 </r>
       <r>    -2.3191    10.2692   117.5622 </r>
       <r>    -2.2076    14.0028   119.1232 </r>
       <r>    -2.0961    14.6542   120.7567 </r>
       <r>    -1.9847    16.4620   122.5918 </r>
       <r>    -1.8732    18.6942   124.6758 </r>
       <r>    -1.7617     8.2958   125.6005 </r>
       <r>    -1.6502    10.4845   126.7693 </r>
       <r>    -1.5388     7.8848   127.6483 </r>
       <r>    -1.4273     7.1980   128.4507 </r>
       <r>    -1.3158    11.2606   129.7059 </r>
       <r>    -1.2043    12.6972   131.1214 </r>
       <r>    -1.0929    13.5469   132.6315 </r>
       <r>    -0.9814    19.9811   134.8589 </r>
       <r>    -0.8699    24.7758   137.6208 </r>
       <r>    -0.7584    29.5427   140.9140 </r>
       <r>    -0.6470    21.8452   143.3492 </r>
       <r>    -0.5355    24.2376   146.0511 </r>
       <r>    -0.4240    22.3477   148.5423 </r>
       <r>    -0.3125    18.5696   150.6124 </r>
       <r>    -0.2011    12.2584   151.9789 </r>
       <r>    -0.0896    11.6815   153.2811 </r>
       <r>     0.0219    13.9363   154.8346 </r>
       <r>     0.1334    16.8477   156.7127 </r>
       <r>     0.2448    12.1456   158.0667 </r>
       <r>     0.3563     9.9437   159.1751 </r>
       <r>     0.4678    11.3835   160.4441 </r>
       <r>     0.5793    16.5401   162.2879 </r>
       <r>     0.6907    11.7160   163.5940 </r>
       <r>     0.8022    12.7098   165.0108 </r>
       <r>     0.9137    15.8660   166.7795 </r>
       <r>     1.0252    16.7205   168.6434 </r>
       <r>     1.1366    16.9895   170.5373 </r>
       <r>     1.2481    16.3802   172.3633 </r>
       <r>     1.3596    16.1711   174.1659 </r>
       <r>     1.4711    13.6485   175.6874 </r>
       <r>     1.5825    13.0546   177.1427 </r>
       <r>     1.6940    12.8582   178.5760 </r>
       <r>     1.8055     5.5390   179.1935 </r>
       <r>     1.9170     7.0272   179.9768 </r>
       <r>     2.0284     6.1368   180.6610 </r>
       <r>     2.1399     3.9575   181.1021 </r>
       <r>     2.2514     1.7509   181.2973 </r>
       <r>     2.3629     3.7629   181.7168 </r>
       <r>     2.4743     3.7968   182.1400 </r>
       <r>     2.5858     6.2117   182.8325 </r>
       <r>     2.6973     6.7732   183.5875 </r>
       <r>     2.8088     5.7972   184.2338 </r>
       <r>     2.9202     3.9791   184.6773 </r>
       <r>     3.0317     4.5748   185.1873 </r>
       <r>     3.1432     5.7009   185.8228 </r>
       <r>     3.2547     7.5216   186.6613 </r>
       <r>     3.3661     7.0156   187.4433 </r>
       <r>     3.4776     9.1253   188.4606 </r>
       <r>     3.5891    10.1729   189.5946 </r>
       <r>     3.7006     9.2728   190.6283 </r>
       <r>     3.8120     4.2998   191.1076 </r>
       <r>     3.9235    10.8416   192.3162 </r>
       <r>     4.0350    11.4587   193.5935 </r>
       <r>     4.1465     7.9388   194.4785 </r>
       <r>     4.2579     7.3371   195.2964 </r>
       <r>     4.3694    11.7119   196.6020 </r>
       <r>     4.4809     7.6126   197.4506 </r>
       <r>     4.5924     8.6843   198.4187 </r>
       <r>     4.7038    12.3553   199.7960 </r>
       <r>     4.8153    13.5471   201.3062 </r>
       <r>     4.9268    14.9076   202.9680 </r>
       <r>     5.0383    12.3362   204.3432 </r>
       <r>     5.1497     6.7610   205.0969 </r>
       <r>     5.2612     8.2043   206.0114 </r>
       <r>     5.3727     8.1274   206.9174 </r>
       <r>     5.4842     5.9308   207.5786 </r>
       <r>     5.5956     3.4064   207.9583 </r>
       <r>     5.7071     0.3756   208.0002 </r>
       <r>     5.8186     0.4933   208.0552 </r>
       <r>     5.9301     1.8590   208.2624 </r>
       <r>     6.0415     3.8448   208.6910 </r>
       <r>     6.1530     3.5260   209.0841 </r>
       <r>     6.2645     2.5482   209.3681 </r>
       <r>     6.3760     1.2163   209.5037 </r>
       <r>     6.4874     2.6332   209.7972 </r>
       <r>     6.5989     3.3629   210.1721 </r>
       <r>     6.7104     1.8816   210.3819 </r>
       <r>     6.8219     2.2523   210.6330 </r>
       <r>     6.9333     1.4877   210.7988 </r>
       <r>     7.0448     1.2516   210.9383 </r>
       <r>     7.1563     1.1074   211.0618 </r>
       <r>     7.2678     2.3156   211.3199 </r>
       <r>     7.3792     4.7853   211.8533 </r>
       <r>     7.4907     6.2230   212.5470 </r>
       <r>     7.6022     4.4201   213.0398 </r>
       <r>     7.7137     3.8142   213.4650 </r>
       <r>     7.8251     3.2851   213.8312 </r>
       <r>     7.9366     2.1317   214.0688 </r>
       <r>     8.0481     5.1121   214.6387 </r>
       <r>     8.1596     4.5869   215.1500 </r>
       <r>     8.2710     6.6778   215.8944 </r>
       <r>     8.3825     2.4962   216.1727 </r>
       <r>     8.4940     4.3657   216.6593 </r>
       <r>     8.6055     6.9106   217.4297 </r>
       <r>     8.7169     3.0042   217.7646 </r>
       <r>     8.8284     4.7168   218.2904 </r>
       <r>     8.9399     4.6245   218.8059 </r>
       <r>     9.0514     8.1625   219.7158 </r>
       <r>     9.1628     7.0320   220.4997 </r>
       <r>     9.2743     9.6301   221.5732 </r>
       <r>     9.3858     4.9708   222.1273 </r>
       <r>     9.4973     8.5355   223.0788 </r>
       <r>     9.6087    12.1317   224.4312 </r>
       <r>     9.7202     9.1842   225.4550 </r>
       <r>     9.8317     5.4521   226.0628 </r>
       <r>     9.9432     3.8124   226.4878 </r>
       <r>    10.0546     8.0580   227.3860 </r>
       <r>    10.1661     1.9070   227.5986 </r>
       <r>    10.2776     2.7314   227.9031 </r>
       <r>    10.3891     0.8561   227.9985 </r>
       <r>    10.5005     0.0131   228.0000 </r>
       <r>    10.6120     0.0000   228.0000 </r>
       <r>    10.7235     0.0000   228.0000 </r>
       <r>    10.8350     0.0000   228.0000 </r>
       <r>    10.9464     0.0000   228.0000 </r>
       <r>    11.0579     0.0000   228.0000 </r>
       <r>    11.1694     0.0000   228.0000 </r>
       <r>    11.2809     0.0000   228.0000 </r>
       <r>    11.3923     0.0000   228.0000 </r>
       <r>    11.5038     0.0000   228.0000 </r>
       <r>    11.6153     0.0000   228.0000 </r>
       <r>    11.7268     0.0000   228.0000 </r>
       <r>    11.8382     0.0000   228.0000 </r>
      </set>
     </set>
    </array>
   </total>
  </dos>
 </calculation>
 <structure name="finalpos" >
  <crystal>
   <varray name="basis" >
    <v>       6.36215693       0.00000000       0.00000000 </v>
    <v>       0.00000000       6.38448299       0.00000000 </v>
    <v>       0.00000000       0.00000000      22.02159841 </v>
   </varray>
   <i name="volume">    894.49712699 </i>
   <varray name="rec_basis" >
    <v>       0.15717940       0.00000000       0.00000000 </v>
    <v>       0.00000000       0.15662975       0.00000000 </v>
    <v>       0.00000000       0.00000000       0.04540996 </v>
   </varray>
  </crystal>
  <varray name="positions" >
   <v>       0.08911000       0.35546000       0.00000000 </v>
   <v>       0.58911000       0.35546000       0.00000000 </v>
   <v>       0.33911000       0.04693000       0.05551000 </v>
   <v>       0.83911000       0.04693000       0.05551000 </v>
   <v>       0.33911000       0.66399000       0.05551000 </v>
   <v>       0.83911000       0.66399000       0.05551000 </v>
   <v>       0.08911000       0.35546000       0.11102000 </v>
   <v>       0.58911000       0.35546000       0.11102000 </v>
   <v>       0.58911000       0.85546000       0.14496000 </v>
   <v>       0.08911000       0.85546000       0.14496000 </v>
   <v>       0.33911000       0.16399000       0.20047000 </v>
   <v>       0.83911000       0.16399000       0.20047000 </v>
   <v>       0.33911000       0.54693000       0.20047000 </v>
   <v>       0.83911000       0.54693000       0.20047000 </v>
   <v>       0.08911000       0.85546000       0.25598000 </v>
   <v>       0.58911000       0.85546000       0.25598000 </v>
   <v>       0.08925015       0.35532854       0.28953177 </v>
   <v>       0.58919304       0.35539884       0.28904662 </v>
   <v>       0.33963998       0.04694987       0.34614458 </v>
   <v>       0.83904736       0.04698339       0.34635293 </v>
   <v>       0.33955783       0.66413683       0.34605261 </v>
   <v>       0.83909071       0.66410462       0.34625331 </v>
   <v>       0.08944585       0.35593552       0.39996176 </v>
   <v>       0.58899300       0.35664467       0.39778232 </v>
   <v>       0.09395371       0.85549250       0.43692138 </v>
   <v>       0.58527621       0.85540880       0.43680417 </v>
   <v>       0.33322080       0.16399747       0.50009160 </v>
   <v>       0.84425246       0.16255029       0.49726172 </v>
   <v>       0.33323596       0.54659716       0.50009811 </v>
   <v>       0.84422318       0.54802224       0.49725845 </v>
   <v>       0.09272887       0.85528986       0.54660920 </v>
   <v>       0.58478676       0.85533510       0.54596787 </v>
   <v>       0.33915577       0.85528105       0.49721605 </v>
   <v>       0.58792511       0.35519451       0.49515299 </v>
   <v>       0.33911000       0.35546000       0.05551000 </v>
   <v>       0.83911000       0.35546000       0.05551000 </v>
   <v>       0.08911000       0.85546000       0.05551000 </v>
   <v>       0.58911000       0.85546000       0.05551000 </v>
   <v>       0.08911000       0.35546000       0.20047000 </v>
   <v>       0.58911000       0.35546000       0.20047000 </v>
   <v>       0.33911000       0.85546000       0.20047000 </v>
   <v>       0.83911000       0.85546000       0.20047000 </v>
   <v>       0.83723251       0.35550865       0.34460077 </v>
   <v>       0.34131963       0.35551689       0.34456869 </v>
   <v>       0.08949281       0.85552633       0.34697786 </v>
   <v>       0.58919509       0.85549664       0.34692204 </v>
   <v>       0.09008552       0.35527928       0.48828796 </v>
   <v>       0.83955133       0.85527761       0.49284783 </v>
  </varray>
  <varray name="selective"  type="logical" >
   <v type="logical" >  F  F  F </v>
   <v type="logical" >  F  F  F </v>
   <v type="logical" >  F  F  F </v>
   <v type="logical" >  F  F  F </v>
   <v type="logical" >  F  F  F </v>
   <v type="logical" >  F  F  F </v>
   <v type="logical" >  F  F  F </v>
   <v type="logical" >  F  F  F </v>
   <v type="logical" >  F  F  F </v>
   <v type="logical" >  F  F  F </v>
   <v type="logical" >  F  F  F </v>
   <v type="logical" >  F  F  F </v>
   <v type="logical" >  F  F  F </v>
   <v type="logical" >  F  F  F </v>
   <v type="logical" >  F  F  F </v>
   <v type="logical" >  F  F  F </v>
   <v type="logical" >  T  T  T </v>
   <v type="logical" >  T  T  T </v>
   <v type="logical" >  T  T  T </v>
   <v type="logical" >  T  T  T </v>
   <v type="logical" >  T  T  T </v>
   <v type="logical" >  T  T  T </v>
   <v type="logical" >  T  T  T </v>
   <v type="logical" >  T  T  T </v>
   <v type="logical" >  T  T  T </v>
   <v type="logical" >  T  T  T </v>
   <v type="logical" >  T  T  T </v>
   <v type="logical" >  T  T  T </v>
   <v type="logical" >  T  T  T </v>
   <v type="logical" >  T  T  T </v>
   <v type="logical" >  T  T  T </v>
   <v type="logical" >  T  T  T </v>
   <v type="logical" >  T  T  T </v>
   <v type="logical" >  T  T  T </v>
   <v type="logical" >  F  F  F </v>
   <v type="logical" >  F  F  F </v>
   <v type="logical" >  F  F  F </v>
   <v type="logical" >  F  F  F </v>
   <v type="logical" >  F  F  F </v>
   <v type="logical" >  F  F  F </v>
   <v type="logical" >  F  F  F </v>
   <v type="logical" >  F  F  F </v>
   <v type="logical" >  T  T  T </v>
   <v type="logical" >  T  T  T </v>
   <v type="logical" >  T  T  T </v>
   <v type="logical" >  T  T  T </v>
   <v type="logical" >  T  T  T </v>
   <v type="logical" >  T  T  T </v>
  </varray>
  <nose>
   <v>      -3.00000000       0.00000000       0.00010000       0.00010000 </v>
  </nose>
 </structure>
</modeling>
