                                        
           1
     6.362157    0.000000    0.000000
     0.000000    6.384483    0.000000
     0.000000    0.000000   22.021598
   O    Ru   Ir
  32   1  15
Direct configuration=     1
   0.08911000  0.35546000  0.00000000
   0.58911000  0.35546000  0.00000000
   0.33911000  0.04693000  0.05551000
   0.83911000  0.04693000  0.05551000
   0.33911000  0.66399000  0.05551000
   0.83911000  0.66399000  0.05551000
   0.08911000  0.35546000  0.11102000
   0.58911000  0.35546000  0.11102000
   0.58911000  0.85546000  0.14496000
   0.08911000  0.85546000  0.14496000
   0.33911000  0.16399000  0.20047000
   0.83911000  0.16399000  0.20047000
   0.33911000  0.54693000  0.20047000
   0.83911000  0.54693000  0.20047000
   0.08911000  0.85546000  0.25598000
   0.58911000  0.85546000  0.25598000
   0.08914000  0.35542000  0.28947000
   0.58914000  0.35542000  0.28947000
   0.33913000  0.04670000  0.34597000
   0.83913000  0.04670000  0.34597000
   0.33911000  0.66418000  0.34595000
   0.83911000  0.66418000  0.34595000
   0.08916000  0.35571000  0.39990000
   0.58916000  0.35571000  0.39990000
   0.08915000  0.85549000  0.43609000
   0.58915000  0.85549000  0.43609000
   0.33914000  0.16538000  0.49406000
   0.83914000  0.16538000  0.49406000
   0.33915000  0.54556000  0.49405000
   0.83915000  0.54556000  0.49405000
   0.08915000  0.85548000  0.54665000
   0.58915000  0.85548000  0.54665000
   0.83915000  0.85545000  0.49288000
   0.33911000  0.35546000  0.05551000
   0.83911000  0.35546000  0.05551000
   0.08911000  0.85546000  0.05551000
   0.58911000  0.85546000  0.05551000
   0.08911000  0.35546000  0.20047000
   0.58911000  0.35546000  0.20047000
   0.33911000  0.85546000  0.20047000
   0.83911000  0.85546000  0.20047000
   0.83914000  0.35543000  0.34488000
   0.33914000  0.35543000  0.34488000
   0.08911000  0.85543000  0.34634000
   0.58911000  0.85543000  0.34634000
   0.08913000  0.35545000  0.48811000
   0.58913000  0.35545000  0.48811000
   0.33915000  0.85545000  0.49288000
Direct configuration=     2
   0.08911000  0.35546000  0.00000000
   0.58911000  0.35546000  0.00000000
   0.33911000  0.04693000  0.05551000
   0.83911000  0.04693000  0.05551000
   0.33911000  0.66399000  0.05551000
   0.83911000  0.66399000  0.05551000
   0.08911000  0.35546000  0.11102000
   0.58911000  0.35546000  0.11102000
   0.58911000  0.85546000  0.14496000
   0.08911000  0.85546000  0.14496000
   0.33911000  0.16399000  0.20047000
   0.83911000  0.16399000  0.20047000
   0.33911000  0.54693000  0.20047000
   0.83911000  0.54693000  0.20047000
   0.08911000  0.85546000  0.25598000
   0.58911000  0.85546000  0.25598000
   0.08912824  0.35541781  0.28947236
   0.58915269  0.35541780  0.28947241
   0.33913046  0.04669327  0.34597233
   0.83913081  0.04670012  0.34598486
   0.33911241  0.66418816  0.34595169
   0.83911276  0.66418149  0.34596419
   0.08911293  0.35571383  0.39991387
   0.58920625  0.35571380  0.39991404
   0.08862622  0.85549053  0.43599764
   0.58967801  0.85549057  0.43599763
   0.33913957  0.16539386  0.49406267
   0.83913913  0.16546650  0.49402617
   0.33915011  0.54554175  0.49405336
   0.83914980  0.54547113  0.49401688
   0.08827694  0.85548081  0.54630932
   0.59002303  0.85548079  0.54630939
   0.83914604  0.85544890  0.49358830
   0.33911000  0.35546000  0.05551000
   0.83911000  0.35546000  0.05551000
   0.08911000  0.85546000  0.05551000
   0.58911000  0.85546000  0.05551000
   0.08911000  0.35546000  0.20047000
   0.58911000  0.35546000  0.20047000
   0.33911000  0.85546000  0.20047000
   0.83911000  0.85546000  0.20047000
   0.83914072  0.35542969  0.34488668
   0.33914085  0.35542961  0.34489337
   0.08927020  0.85543255  0.34638968
   0.58895191  0.85543252  0.34638971
   0.08868884  0.35544888  0.48814381
   0.58957203  0.35544894  0.48814352
   0.33914871  0.85544984  0.49295818
Direct configuration=     3
   0.08911000  0.35546000  0.00000000
   0.58911000  0.35546000  0.00000000
   0.33911000  0.04693000  0.05551000
   0.83911000  0.04693000  0.05551000
   0.33911000  0.66399000  0.05551000
   0.83911000  0.66399000  0.05551000
   0.08911000  0.35546000  0.11102000
   0.58911000  0.35546000  0.11102000
   0.58911000  0.85546000  0.14496000
   0.08911000  0.85546000  0.14496000
   0.33911000  0.16399000  0.20047000
   0.83911000  0.16399000  0.20047000
   0.33911000  0.54693000  0.20047000
   0.83911000  0.54693000  0.20047000
   0.08911000  0.85546000  0.25598000
   0.58911000  0.85546000  0.25598000
   0.08909594  0.35541179  0.28947884
   0.58918752  0.35541177  0.28947902
   0.33913173  0.04667478  0.34597873
   0.83913302  0.04670045  0.34602566
   0.33911903  0.66421055  0.34595631
   0.83912034  0.66418559  0.34600315
   0.08898372  0.35572433  0.39995196
   0.58933322  0.35572425  0.39995258
   0.08718831  0.85549197  0.43574410
   0.59112750  0.85549214  0.43574406
   0.33913837  0.16543191  0.49407001
   0.83913674  0.16570394  0.49393330
   0.33915042  0.54549166  0.49406260
   0.83914924  0.54522717  0.49392597
   0.08588018  0.85548305  0.54537410
   0.59241969  0.85548297  0.54537435
   0.83913516  0.85544588  0.49553274
   0.33911000  0.35546000  0.05551000
   0.83911000  0.35546000  0.05551000
   0.08911000  0.85546000  0.05551000
   0.58911000  0.85546000  0.05551000
   0.08911000  0.35546000  0.20047000
   0.58911000  0.35546000  0.20047000
   0.33911000  0.85546000  0.20047000
   0.83911000  0.85546000  0.20047000
   0.83914270  0.35542883  0.34490501
   0.33914319  0.35542854  0.34493008
   0.08970999  0.85543956  0.34652606
   0.58851792  0.85543943  0.34652618
   0.08747777  0.35544582  0.48823663
   0.59078549  0.35544601  0.48823552
   0.33914517  0.85544942  0.49317280
Direct configuration=     4
   0.08911000  0.35546000  0.00000000
   0.58911000  0.35546000  0.00000000
   0.33911000  0.04693000  0.05551000
   0.83911000  0.04693000  0.05551000
   0.33911000  0.66399000  0.05551000
   0.83911000  0.66399000  0.05551000
   0.08911000  0.35546000  0.11102000
   0.58911000  0.35546000  0.11102000
   0.58911000  0.85546000  0.14496000
   0.08911000  0.85546000  0.14496000
   0.33911000  0.16399000  0.20047000
   0.83911000  0.16399000  0.20047000
   0.33911000  0.54693000  0.20047000
   0.83911000  0.54693000  0.20047000
   0.08911000  0.85546000  0.25598000
   0.58911000  0.85546000  0.25598000
   0.08910198  0.35541291  0.28947763
   0.58918100  0.35541290  0.28947778
   0.33913149  0.04667824  0.34597753
   0.83913260  0.04670039  0.34601803
   0.33911779  0.66420636  0.34595545
   0.83911892  0.66418482  0.34599586
   0.08900790  0.35572237  0.39994483
   0.58930946  0.35572230  0.39994537
   0.08745738  0.85549170  0.43579155
   0.59085627  0.85549185  0.43579151
   0.33913860  0.16542479  0.49406864
   0.83913719  0.16565951  0.49395068
   0.33915036  0.54550104  0.49406087
   0.83914934  0.54527282  0.49394298
   0.08632867  0.85548263  0.54554910
   0.59197122  0.85548257  0.54554932
   0.83913720  0.85544645  0.49516889
   0.33911000  0.35546000  0.05551000
   0.83911000  0.35546000  0.05551000
   0.08911000  0.85546000  0.05551000
   0.58911000  0.85546000  0.05551000
   0.08911000  0.35546000  0.20047000
   0.58911000  0.35546000  0.20047000
   0.33911000  0.85546000  0.20047000
   0.83911000  0.85546000  0.20047000
   0.83914233  0.35542899  0.34490158
   0.33914275  0.35542874  0.34492321
   0.08962769  0.85543825  0.34650054
   0.58859913  0.85543814  0.34650065
   0.08770439  0.35544639  0.48821926
   0.59055843  0.35544656  0.48821831
   0.33914584  0.85544950  0.49313264
Direct configuration=     5
   0.08911000  0.35546000  0.00000000
   0.58911000  0.35546000  0.00000000
   0.33911000  0.04693000  0.05551000
   0.83911000  0.04693000  0.05551000
   0.33911000  0.66399000  0.05551000
   0.83911000  0.66399000  0.05551000
   0.08911000  0.35546000  0.11102000
   0.58911000  0.35546000  0.11102000
   0.58911000  0.85546000  0.14496000
   0.08911000  0.85546000  0.14496000
   0.33911000  0.16399000  0.20047000
   0.83911000  0.16399000  0.20047000
   0.33911000  0.54693000  0.20047000
   0.83911000  0.54693000  0.20047000
   0.08911000  0.85546000  0.25598000
   0.58911000  0.85546000  0.25598000
   0.08908896  0.35540954  0.28948673
   0.58919719  0.35540915  0.28948704
   0.33913197  0.04672060  0.34598728
   0.83913326  0.04664661  0.34603642
   0.33912056  0.66416806  0.34596409
   0.83912208  0.66424264  0.34601282
   0.08895394  0.35572875  0.39996082
   0.58936449  0.35572957  0.39996160
   0.08696449  0.85549191  0.43591095
   0.59134218  0.85549028  0.43591168
   0.33913795  0.16556551  0.49409550
   0.83913429  0.16567749  0.49400623
   0.33915085  0.54535618  0.49408902
   0.83915084  0.54525557  0.49400072
   0.08547535  0.85548431  0.54546272
   0.59281931  0.85548308  0.54546082
   0.83914140  0.85544448  0.49534796
   0.33911000  0.35546000  0.05551000
   0.83911000  0.35546000  0.05551000
   0.08911000  0.85546000  0.05551000
   0.58911000  0.85546000  0.05551000
   0.08911000  0.35546000  0.20047000
   0.58911000  0.35546000  0.20047000
   0.33911000  0.85546000  0.20047000
   0.83911000  0.85546000  0.20047000
   0.83914324  0.35542999  0.34490392
   0.33914307  0.35542967  0.34495025
   0.08934564  0.85543683  0.34648908
   0.58888901  0.85543705  0.34648884
   0.08812652  0.35544408  0.48820645
   0.59013990  0.35544313  0.48820612
   0.33914512  0.85544887  0.49274809
Direct configuration=     6
   0.08911000  0.35546000  0.00000000
   0.58911000  0.35546000  0.00000000
   0.33911000  0.04693000  0.05551000
   0.83911000  0.04693000  0.05551000
   0.33911000  0.66399000  0.05551000
   0.83911000  0.66399000  0.05551000
   0.08911000  0.35546000  0.11102000
   0.58911000  0.35546000  0.11102000
   0.58911000  0.85546000  0.14496000
   0.08911000  0.85546000  0.14496000
   0.33911000  0.16399000  0.20047000
   0.83911000  0.16399000  0.20047000
   0.33911000  0.54693000  0.20047000
   0.83911000  0.54693000  0.20047000
   0.08911000  0.85546000  0.25598000
   0.58911000  0.85546000  0.25598000
   0.08908204  0.35540775  0.28949156
   0.58920579  0.35540716  0.28949196
   0.33913222  0.04674309  0.34599245
   0.83913361  0.04661805  0.34604619
   0.33912204  0.66414773  0.34596868
   0.83912376  0.66427333  0.34602182
   0.08892529  0.35573214  0.39996931
   0.58939371  0.35573343  0.39997022
   0.08670284  0.85549202  0.43597434
   0.59160013  0.85548945  0.43597547
   0.33913761  0.16564021  0.49410976
   0.83913275  0.16568703  0.49403571
   0.33915112  0.54527929  0.49410396
   0.83915163  0.54524641  0.49403137
   0.08502235  0.85548520  0.54541686
   0.59326952  0.85548336  0.54541384
   0.83914364  0.85544343  0.49544302
   0.33911000  0.35546000  0.05551000
   0.83911000  0.35546000  0.05551000
   0.08911000  0.85546000  0.05551000
   0.58911000  0.85546000  0.05551000
   0.08911000  0.35546000  0.20047000
   0.58911000  0.35546000  0.20047000
   0.33911000  0.85546000  0.20047000
   0.83911000  0.85546000  0.20047000
   0.83914372  0.35543052  0.34490517
   0.33914324  0.35543016  0.34496461
   0.08919591  0.85543608  0.34648299
   0.58904290  0.85543647  0.34648258
   0.08835062  0.35544284  0.48819965
   0.58991772  0.35544131  0.48819965
   0.33914474  0.85544854  0.49254395
Direct configuration=     7
   0.08911000  0.35546000  0.00000000
   0.58911000  0.35546000  0.00000000
   0.33911000  0.04693000  0.05551000
   0.83911000  0.04693000  0.05551000
   0.33911000  0.66399000  0.05551000
   0.83911000  0.66399000  0.05551000
   0.08911000  0.35546000  0.11102000
   0.58911000  0.35546000  0.11102000
   0.58911000  0.85546000  0.14496000
   0.08911000  0.85546000  0.14496000
   0.33911000  0.16399000  0.20047000
   0.83911000  0.16399000  0.20047000
   0.33911000  0.54693000  0.20047000
   0.83911000  0.54693000  0.20047000
   0.08911000  0.85546000  0.25598000
   0.58911000  0.85546000  0.25598000
   0.08906821  0.35540418  0.28950123
   0.58922298  0.35540318  0.28950179
   0.33913272  0.04678807  0.34600280
   0.83913431  0.04656095  0.34606572
   0.33912498  0.66410707  0.34597786
   0.83912711  0.66433472  0.34603983
   0.08886799  0.35573892  0.39998629
   0.58945214  0.35574115  0.39998746
   0.08617953  0.85549225  0.43610112
   0.59211604  0.85548779  0.43610305
   0.33913692  0.16578962  0.49413828
   0.83912966  0.16570611  0.49409469
   0.33915164  0.54512549  0.49413385
   0.83915322  0.54522810  0.49409267
   0.08411634  0.85548697  0.54532515
   0.59416996  0.85548390  0.54531989
   0.83914810  0.85544133  0.49563313
   0.33911000  0.35546000  0.05551000
   0.83911000  0.35546000  0.05551000
   0.08911000  0.85546000  0.05551000
   0.58911000  0.85546000  0.05551000
   0.08911000  0.35546000  0.20047000
   0.58911000  0.35546000  0.20047000
   0.33911000  0.85546000  0.20047000
   0.83911000  0.85546000  0.20047000
   0.83914469  0.35543158  0.34490766
   0.33914358  0.35543114  0.34499332
   0.08889646  0.85543458  0.34647082
   0.58935068  0.85543531  0.34647004
   0.08879882  0.35544038  0.48818605
   0.58947336  0.35543768  0.48818671
   0.33914397  0.85544788  0.49213567
Direct configuration=     8
   0.08911000  0.35546000  0.00000000
   0.58911000  0.35546000  0.00000000
   0.33911000  0.04693000  0.05551000
   0.83911000  0.04693000  0.05551000
   0.33911000  0.66399000  0.05551000
   0.83911000  0.66399000  0.05551000
   0.08911000  0.35546000  0.11102000
   0.58911000  0.35546000  0.11102000
   0.58911000  0.85546000  0.14496000
   0.08911000  0.85546000  0.14496000
   0.33911000  0.16399000  0.20047000
   0.83911000  0.16399000  0.20047000
   0.33911000  0.54693000  0.20047000
   0.83911000  0.54693000  0.20047000
   0.08911000  0.85546000  0.25598000
   0.58911000  0.85546000  0.25598000
   0.08907099  0.35540490  0.28949929
   0.58921953  0.35540398  0.28949982
   0.33913262  0.04677904  0.34600072
   0.83913417  0.04657241  0.34606179
   0.33912439  0.66411523  0.34597601
   0.83912644  0.66432239  0.34603621
   0.08887950  0.35573755  0.39998288
   0.58944040  0.35573960  0.39998399
   0.08628463  0.85549220  0.43607565
   0.59201243  0.85548812  0.43607742
   0.33913706  0.16575961  0.49413255
   0.83913028  0.16570228  0.49408284
   0.33915154  0.54515638  0.49412784
   0.83915290  0.54523178  0.49408036
   0.08429831  0.85548662  0.54534357
   0.59398912  0.85548379  0.54533876
   0.83914721  0.85544176  0.49559495
   0.33911000  0.35546000  0.05551000
   0.83911000  0.35546000  0.05551000
   0.08911000  0.85546000  0.05551000
   0.58911000  0.85546000  0.05551000
   0.08911000  0.35546000  0.20047000
   0.58911000  0.35546000  0.20047000
   0.33911000  0.85546000  0.20047000
   0.83911000  0.85546000  0.20047000
   0.83914450  0.35543137  0.34490716
   0.33914351  0.35543095  0.34498755
   0.08895660  0.85543488  0.34647326
   0.58928886  0.85543554  0.34647256
   0.08870880  0.35544088  0.48818878
   0.58956260  0.35543841  0.48818931
   0.33914413  0.85544802  0.49221767
Direct configuration=     9
   0.08911000  0.35546000  0.00000000
   0.58911000  0.35546000  0.00000000
   0.33911000  0.04693000  0.05551000
   0.83911000  0.04693000  0.05551000
   0.33911000  0.66399000  0.05551000
   0.83911000  0.66399000  0.05551000
   0.08911000  0.35546000  0.11102000
   0.58911000  0.35546000  0.11102000
   0.58911000  0.85546000  0.14496000
   0.08911000  0.85546000  0.14496000
   0.33911000  0.16399000  0.20047000
   0.83911000  0.16399000  0.20047000
   0.33911000  0.54693000  0.20047000
   0.83911000  0.54693000  0.20047000
   0.08911000  0.85546000  0.25598000
   0.58911000  0.85546000  0.25598000
   0.08909560  0.35540211  0.28950626
   0.58919720  0.35540096  0.28950684
   0.33913558  0.04671767  0.34602300
   0.83913650  0.04663080  0.34607652
   0.33912754  0.66417520  0.34599648
   0.83913049  0.66426427  0.34604875
   0.08888707  0.35574550  0.39998112
   0.58943403  0.35574921  0.39998175
   0.08598353  0.85549306  0.43607401
   0.59230945  0.85548884  0.43607764
   0.33913846  0.16567700  0.49414013
   0.83913322  0.16582768  0.49416310
   0.33915233  0.54523265  0.49413680
   0.83915533  0.54510151  0.49416166
   0.08420400  0.85548567  0.54534963
   0.59408093  0.85548737  0.54534108
   0.83915442  0.85544590  0.49546349
   0.33911000  0.35546000  0.05551000
   0.83911000  0.35546000  0.05551000
   0.08911000  0.85546000  0.05551000
   0.58911000  0.85546000  0.05551000
   0.08911000  0.35546000  0.20047000
   0.58911000  0.35546000  0.20047000
   0.33911000  0.85546000  0.20047000
   0.83911000  0.85546000  0.20047000
   0.83914508  0.35543232  0.34491971
   0.33914478  0.35543296  0.34498280
   0.08913487  0.85543829  0.34650236
   0.58910832  0.85543801  0.34650254
   0.08857769  0.35543797  0.48819588
   0.58968939  0.35543733  0.48819670
   0.33914344  0.85544585  0.49211008
Direct configuration=    10
   0.08911000  0.35546000  0.00000000
   0.58911000  0.35546000  0.00000000
   0.33911000  0.04693000  0.05551000
   0.83911000  0.04693000  0.05551000
   0.33911000  0.66399000  0.05551000
   0.83911000  0.66399000  0.05551000
   0.08911000  0.35546000  0.11102000
   0.58911000  0.35546000  0.11102000
   0.58911000  0.85546000  0.14496000
   0.08911000  0.85546000  0.14496000
   0.33911000  0.16399000  0.20047000
   0.83911000  0.16399000  0.20047000
   0.33911000  0.54693000  0.20047000
   0.83911000  0.54693000  0.20047000
   0.08911000  0.85546000  0.25598000
   0.58911000  0.85546000  0.25598000
   0.08912099  0.35539924  0.28951346
   0.58917417  0.35539785  0.28951408
   0.33913864  0.04665439  0.34604596
   0.83913891  0.04669102  0.34609170
   0.33913079  0.66423704  0.34601758
   0.83913467  0.66420434  0.34606168
   0.08889487  0.35575370  0.39997931
   0.58942746  0.35575912  0.39997944
   0.08567305  0.85549394  0.43607231
   0.59261573  0.85548958  0.43607787
   0.33913991  0.16559180  0.49414794
   0.83913626  0.16595698  0.49424585
   0.33915315  0.54531131  0.49414604
   0.83915784  0.54496719  0.49424549
   0.08410675  0.85548470  0.54535587
   0.59417561  0.85549105  0.54534348
   0.83916186  0.85545017  0.49532793
   0.33911000  0.35546000  0.05551000
   0.83911000  0.35546000  0.05551000
   0.08911000  0.85546000  0.05551000
   0.58911000  0.85546000  0.05551000
   0.08911000  0.35546000  0.20047000
   0.58911000  0.35546000  0.20047000
   0.33911000  0.85546000  0.20047000
   0.83911000  0.85546000  0.20047000
   0.83914567  0.35543330  0.34493264
   0.33914608  0.35543503  0.34497791
   0.08931870  0.85544181  0.34653237
   0.58892214  0.85544056  0.34653346
   0.08844250  0.35543498  0.48820320
   0.58982014  0.35543623  0.48820433
   0.33914273  0.85544362  0.49199914
Direct configuration=    11
   0.08911000  0.35546000  0.00000000
   0.58911000  0.35546000  0.00000000
   0.33911000  0.04693000  0.05551000
   0.83911000  0.04693000  0.05551000
   0.33911000  0.66399000  0.05551000
   0.83911000  0.66399000  0.05551000
   0.08911000  0.35546000  0.11102000
   0.58911000  0.35546000  0.11102000
   0.58911000  0.85546000  0.14496000
   0.08911000  0.85546000  0.14496000
   0.33911000  0.16399000  0.20047000
   0.83911000  0.16399000  0.20047000
   0.33911000  0.54693000  0.20047000
   0.83911000  0.54693000  0.20047000
   0.08911000  0.85546000  0.25598000
   0.58911000  0.85546000  0.25598000
   0.08913259  0.35539400  0.28952799
   0.58916726  0.35539265  0.28952829
   0.33913884  0.04667967  0.34609134
   0.83914042  0.04669208  0.34611855
   0.33913457  0.66421796  0.34605951
   0.83913753  0.66420504  0.34608550
   0.08892021  0.35576870  0.39999192
   0.58940593  0.35577704  0.39999197
   0.08535854  0.85549668  0.43602347
   0.59292634  0.85549182  0.43603308
   0.33914025  0.16554624  0.49413034
   0.83914029  0.16607219  0.49437372
   0.33915252  0.54534860  0.49413024
   0.83915583  0.54484241  0.49437634
   0.08403868  0.85548451  0.54529400
   0.59424094  0.85549695  0.54527470
   0.83916365  0.85545134  0.49523650
   0.33911000  0.35546000  0.05551000
   0.83911000  0.35546000  0.05551000
   0.08911000  0.85546000  0.05551000
   0.58911000  0.85546000  0.05551000
   0.08911000  0.35546000  0.20047000
   0.58911000  0.35546000  0.20047000
   0.33911000  0.85546000  0.20047000
   0.83911000  0.85546000  0.20047000
   0.83914962  0.35543453  0.34493733
   0.33914922  0.35543515  0.34498503
   0.08912831  0.85544192  0.34654430
   0.58912072  0.85544029  0.34654693
   0.08846986  0.35543016  0.48822874
   0.58979553  0.35543302  0.48822986
   0.33914087  0.85544129  0.49198787
Direct configuration=    12
   0.08911000  0.35546000  0.00000000
   0.58911000  0.35546000  0.00000000
   0.33911000  0.04693000  0.05551000
   0.83911000  0.04693000  0.05551000
   0.33911000  0.66399000  0.05551000
   0.83911000  0.66399000  0.05551000
   0.08911000  0.35546000  0.11102000
   0.58911000  0.35546000  0.11102000
   0.58911000  0.85546000  0.14496000
   0.08911000  0.85546000  0.14496000
   0.33911000  0.16399000  0.20047000
   0.83911000  0.16399000  0.20047000
   0.33911000  0.54693000  0.20047000
   0.83911000  0.54693000  0.20047000
   0.08911000  0.85546000  0.25598000
   0.58911000  0.85546000  0.25598000
   0.08914832  0.35538690  0.28954769
   0.58915788  0.35538561  0.28954754
   0.33913910  0.04671393  0.34615283
   0.83914246  0.04669351  0.34615494
   0.33913970  0.66419210  0.34611633
   0.83914140  0.66420600  0.34611778
   0.08895454  0.35578903  0.40000901
   0.58937677  0.35580132  0.40000893
   0.08493239  0.85550040  0.43595730
   0.59334719  0.85549485  0.43597240
   0.33914070  0.16548451  0.49410649
   0.83914575  0.16622827  0.49454697
   0.33915166  0.54539914  0.49410883
   0.83915310  0.54467335  0.49455363
   0.08394645  0.85548426  0.54521017
   0.59432945  0.85550494  0.54518152
   0.83916606  0.85545293  0.49511262
   0.33911000  0.35546000  0.05551000
   0.83911000  0.35546000  0.05551000
   0.08911000  0.85546000  0.05551000
   0.58911000  0.85546000  0.05551000
   0.08911000  0.35546000  0.20047000
   0.58911000  0.35546000  0.20047000
   0.33911000  0.85546000  0.20047000
   0.83911000  0.85546000  0.20047000
   0.83915498  0.35543621  0.34494367
   0.33915347  0.35543531  0.34499467
   0.08887035  0.85544208  0.34656048
   0.58938977  0.85543993  0.34656518
   0.08850695  0.35542363  0.48826334
   0.58976218  0.35542867  0.48826444
   0.33913836  0.85543814  0.49197261
Direct configuration=    13
   0.08911000  0.35546000  0.00000000
   0.58911000  0.35546000  0.00000000
   0.33911000  0.04693000  0.05551000
   0.83911000  0.04693000  0.05551000
   0.33911000  0.66399000  0.05551000
   0.83911000  0.66399000  0.05551000
   0.08911000  0.35546000  0.11102000
   0.58911000  0.35546000  0.11102000
   0.58911000  0.85546000  0.14496000
   0.08911000  0.85546000  0.14496000
   0.33911000  0.16399000  0.20047000
   0.83911000  0.16399000  0.20047000
   0.33911000  0.54693000  0.20047000
   0.83911000  0.54693000  0.20047000
   0.08911000  0.85546000  0.25598000
   0.58911000  0.85546000  0.25598000
   0.08915417  0.35537871  0.28954096
   0.58916095  0.35537771  0.28954077
   0.33914596  0.04669055  0.34621915
   0.83914695  0.04670657  0.34618253
   0.33914516  0.66421761  0.34617768
   0.83914478  0.66419986  0.34614112
   0.08898201  0.35581544  0.40002829
   0.58935972  0.35583286  0.40002808
   0.08478585  0.85549764  0.43592256
   0.59349530  0.85549717  0.43594092
   0.33913992  0.16551506  0.49407220
   0.83915587  0.16626347  0.49473288
   0.33914932  0.54536448  0.49407691
   0.83915308  0.54464193  0.49474339
   0.08394776  0.85548274  0.54509066
   0.59432535  0.85551036  0.54505885
   0.83916033  0.85543781  0.49511924
   0.33911000  0.35546000  0.05551000
   0.83911000  0.35546000  0.05551000
   0.08911000  0.85546000  0.05551000
   0.58911000  0.85546000  0.05551000
   0.08911000  0.35546000  0.20047000
   0.58911000  0.35546000  0.20047000
   0.33911000  0.85546000  0.20047000
   0.83911000  0.85546000  0.20047000
   0.83915679  0.35543489  0.34495742
   0.33915566  0.35543648  0.34502403
   0.08900852  0.85544334  0.34649155
   0.58925736  0.85544118  0.34649895
   0.08857447  0.35541791  0.48833070
   0.58969890  0.35541829  0.48833103
   0.33912870  0.85543381  0.49195739
