   48   48 1000    2
  0.1863536E+02  0.6362157E-09  0.6384483E-09  0.2202160E-08  0.1000000E-15
  1.000000000000000E-004
  CAR 
                                         
    336     10    228
