<?xml version="1.0" encoding="ISO-8859-1"?>
<modeling>
 <generator>
  <i name="program" type="string">vasp </i>
  <i name="version" type="string">5.4.1  </i>
  <i name="subversion" type="string">08Jul2015 (build Apr 24 2014 00:09:29) complex standard with constrain (TS)     parallel </i>
  <i name="platform" type="string">IBM of Center for Computational Chemistry </i>
  <i name="date" type="string">2018 03 19 </i>
  <i name="time" type="string">16:29:53 </i>
 </generator>
 <incar>
  <i type="int" name="ISTART">     0</i>
  <i type="string" name="PREC">accurate       ! [low/medium/high/norma</i>
  <i type="string" name="ALGO">Fast</i>
  <i type="int" name="ISPIN">     2</i>
  <i type="int" name="NELM">   300</i>
  <i type="int" name="NELMIN">     3</i>
  <i type="int" name="IBRION">     2</i>
  <i name="EDIFFG">     -0.05000000</i>
  <i type="int" name="NSW">  1000</i>
  <i type="int" name="ISIF">     2</i>
  <i type="int" name="ISYM">     0</i>
  <i name="ENCUT">    500.00000000</i>
  <i name="POTIM">      0.10000000</i>
  <i type="string" name="LREAL"> A    ! aproximace, T zpomaluje, ale pre</i>
  <i type="int" name="ISMEAR">     0</i>
  <i name="SIGMA">      0.05000000</i>
  <i type="int" name="NWRITE">     2</i>
  <i type="logical" name="LWAVE"> F  </i>
  <i type="logical" name="LCHARG"> F  </i>
  <v type="int" name="KPOINT_BSE">    -1     0     0     0</v>
  <i type="int" name="NELM">   300</i>
 </incar>
 <kpoints>
  <generation param="Gamma">
   <v type="int" name="divisions">       4        4        1 </v>
   <v name="usershift">      0.00000000       0.00000000       0.00000000 </v>
   <v name="genvec1">      0.25000000       0.00000000       0.00000000 </v>
   <v name="genvec2">      0.00000000       0.25000000       0.00000000 </v>
   <v name="genvec3">      0.00000000       0.00000000       1.00000000 </v>
   <v name="shift">      0.00000000       0.00000000       0.00000000 </v>
  </generation>
  <varray name="kpointlist" >
   <v>       0.00000000       0.00000000       0.00000000 </v>
   <v>       0.25000000       0.00000000       0.00000000 </v>
   <v>       0.50000000       0.00000000       0.00000000 </v>
   <v>       0.00000000       0.25000000       0.00000000 </v>
   <v>       0.25000000       0.25000000       0.00000000 </v>
   <v>       0.50000000       0.25000000       0.00000000 </v>
   <v>      -0.25000000       0.25000000       0.00000000 </v>
   <v>       0.00000000       0.50000000       0.00000000 </v>
   <v>       0.25000000       0.50000000       0.00000000 </v>
   <v>       0.50000000       0.50000000       0.00000000 </v>
  </varray>
  <varray name="weights" >
   <v>       0.06250000 </v>
   <v>       0.12500000 </v>
   <v>       0.06250000 </v>
   <v>       0.12500000 </v>
   <v>       0.12500000 </v>
   <v>       0.12500000 </v>
   <v>       0.12500000 </v>
   <v>       0.06250000 </v>
   <v>       0.12500000 </v>
   <v>       0.06250000 </v>
  </varray>
 </kpoints>
 <parameters>
  <separator name="general" >
   <i type="string" name="SYSTEM"></i>
   <i type="logical" name="LCOMPAT"> F  </i>
  </separator>
  <separator name="electronic" >
   <i type="string" name="PREC">accura</i>
   <i name="ENMAX">    500.00000000</i>
   <i name="ENAUG">    605.39200000</i>
   <i name="EDIFF">      0.00010000</i>
   <i type="int" name="IALGO">    68</i>
   <i type="int" name="IWAVPR">    11</i>
   <i type="int" name="NBANDS">   228</i>
   <i name="NELECT">    336.00000000</i>
   <i type="int" name="TURBO">     0</i>
   <i type="int" name="IRESTART">     0</i>
   <i type="int" name="NREBOOT">     0</i>
   <i type="int" name="NMIN">     0</i>
   <i name="EREF">      0.00000000</i>
   <separator name="electronic smearing" >
    <i type="int" name="ISMEAR">     0</i>
    <i name="SIGMA">      0.05000000</i>
    <i name="KSPACING">      0.50000000</i>
    <i type="logical" name="KGAMMA"> T  </i>
   </separator>
   <separator name="electronic projectors" >
    <i type="logical" name="LREAL"> T  </i>
    <v name="ROPT">     -0.00025000     -0.00025000     -0.00025000     -0.00025000     -0.00025000</v>
    <i type="int" name="LMAXPAW">  -100</i>
    <i type="int" name="LMAXMIX">     2</i>
    <i type="logical" name="NLSPLINE"> F  </i>
   </separator>
   <separator name="electronic startup" >
    <i type="int" name="ISTART">     0</i>
    <i type="int" name="ICHARG">     2</i>
    <i type="int" name="INIWAV">     1</i>
   </separator>
   <separator name="electronic spin" >
    <i type="int" name="ISPIN">     2</i>
    <i type="logical" name="LNONCOLLINEAR"> F  </i>
    <v name="MAGMOM">      1.00000000      1.00000000      1.00000000      1.00000000      1.00000000      1.00000000      1.00000000      1.00000000      1.00000000      1.00000000      1.00000000      1.00000000      1.00000000      1.00000000      1.00000000      1.00000000      1.00000000      1.00000000      1.00000000      1.00000000
      1.00000000      1.00000000      1.00000000      1.00000000      1.00000000      1.00000000      1.00000000      1.00000000      1.00000000      1.00000000      1.00000000      1.00000000      1.00000000      1.00000000      1.00000000      1.00000000      1.00000000      1.00000000      1.00000000      1.00000000
      1.00000000      1.00000000      1.00000000      1.00000000      1.00000000      1.00000000      1.00000000      1.00000000</v>
    <i name="NUPDOWN">     -1.00000000</i>
    <i type="logical" name="LSORBIT"> F  </i>
    <v name="SAXIS">      0.00000000      0.00000000      1.00000000</v>
    <i type="logical" name="LSPIRAL"> F  </i>
    <v name="QSPIRAL">      0.00000000      0.00000000      0.00000000</v>
    <i type="logical" name="LZEROZ"> F  </i>
   </separator>
   <separator name="electronic exchange-correlation" >
    <i type="logical" name="LASPH"> F  </i>
    <i type="logical" name="LMETAGGA"> F  </i>
   </separator>
   <separator name="electronic convergence" >
    <i type="int" name="NELM">   300</i>
    <i type="int" name="NELMDL">    -5</i>
    <i type="int" name="NELMIN">     3</i>
    <i name="ENINI">    500.00000000</i>
    <separator name="electronic convergence detail" >
     <i type="logical" name="LDIAG"> T  </i>
     <i type="logical" name="LSUBROT"> F  </i>
     <i name="WEIMIN">      0.00100000</i>
     <i name="EBREAK">      0.00000011</i>
     <i name="DEPER">      0.30000000</i>
     <i type="int" name="NRMM">     4</i>
     <i name="TIME">      0.40000000</i>
    </separator>
   </separator>
   <separator name="electronic mixer" >
    <i name="AMIX">      0.40000000</i>
    <i name="BMIX">      1.00000000</i>
    <i name="AMIN">      0.10000000</i>
    <i name="AMIX_MAG">      1.60000000</i>
    <i name="BMIX_MAG">      1.00000000</i>
    <separator name="electronic mixer details" >
     <i type="int" name="IMIX">     4</i>
     <i type="logical" name="MIXFIRST"> F  </i>
     <i type="int" name="MAXMIX">   -45</i>
     <i name="WC">    100.00000000</i>
     <i type="int" name="INIMIX">     1</i>
     <i type="int" name="MIXPRE">     1</i>
     <i type="int" name="MREMOVE">     5</i>
    </separator>
   </separator>
   <separator name="electronic dipolcorrection" >
    <i type="logical" name="LDIPOL"> F  </i>
    <i type="logical" name="LMONO"> F  </i>
    <i type="int" name="IDIPOL">     0</i>
    <i name="EPSILON">      1.00000000</i>
    <v name="DIPOL">   -100.00000000   -100.00000000   -100.00000000</v>
    <i name="EFIELD">      0.00000000</i>
   </separator>
  </separator>
  <separator name="grids" >
   <i type="int" name="NGX">    48</i>
   <i type="int" name="NGY">    48</i>
   <i type="int" name="NGZ">   162</i>
   <i type="int" name="NGXF">    96</i>
   <i type="int" name="NGYF">    96</i>
   <i type="int" name="NGZF">   324</i>
   <i type="logical" name="ADDGRID"> F  </i>
  </separator>
  <separator name="ionic" >
   <i type="int" name="NSW">  1000</i>
   <i type="int" name="IBRION">     2</i>
   <i type="int" name="ISIF">     2</i>
   <i name="PSTRESS">      0.00000000</i>
   <i name="EDIFFG">     -0.05000000</i>
   <i type="int" name="NFREE">     1</i>
   <i name="POTIM">      0.10000000</i>
   <i name="SMASS">     -3.00000000</i>
   <i name="SCALEE">      1.00000000</i>
  </separator>
  <separator name="ionic md" >
   <i name="TEBEG">      0.00010000</i>
   <i name="TEEND">      0.00010000</i>
   <i type="int" name="NBLOCK">     1</i>
   <i type="int" name="KBLOCK">  1000</i>
   <i type="int" name="NPACO">   256</i>
   <i name="APACO">     16.00000000</i>
  </separator>
  <separator name="symmetry" >
   <i type="int" name="ISYM">     0</i>
   <i name="SYMPREC">      0.00001000</i>
  </separator>
  <separator name="dos" >
   <i type="logical" name="LORBIT"> F  </i>
   <v name="RWIGS">     -1.00000000     -1.00000000     -1.00000000     -1.00000000     -1.00000000</v>
   <i type="int" name="NEDOS">   301</i>
   <i name="EMIN">     10.00000000</i>
   <i name="EMAX">    -10.00000000</i>
   <i name="EFERMI">      0.00000000</i>
  </separator>
  <separator name="writing" >
   <i type="int" name="NWRITE">     2</i>
   <i type="logical" name="LWAVE"> F  </i>
   <i type="logical" name="LCHARG"> F  </i>
   <i type="logical" name="LPARD"> F  </i>
   <i type="logical" name="LVTOT"> F  </i>
   <i type="logical" name="LVHAR"> F  </i>
   <i type="logical" name="LELF"> F  </i>
   <i type="logical" name="LOPTICS"> F  </i>
   <v name="STM">      0.00000000      0.00000000      0.00000000      0.00000000      0.00000000      0.00000000      0.00000000</v>
  </separator>
  <separator name="performance" >
   <i type="int" name="NPAR">     4</i>
   <i type="int" name="NSIM">     4</i>
   <i type="int" name="NBLK">    -1</i>
   <i type="logical" name="LPLANE"> T  </i>
   <i type="logical" name="LSCALAPACK"> T  </i>
   <i type="logical" name="LSCAAWARE"> F  </i>
   <i type="logical" name="LSCALU"> F  </i>
   <i type="logical" name="LASYNC"> F  </i>
   <i type="logical" name="LORBITALREAL"> F  </i>
  </separator>
  <separator name="miscellaneous" >
   <i type="int" name="IDIOT">     3</i>
   <i type="logical" name="LMUSIC"> F  </i>
   <v name="POMASS">     16.00000000    102.90600000    190.20000000    192.22000000    195.08000000</v>
   <v name="DARWINR">      0.00000000      0.00000000      0.00000000      0.00000000      0.00000000</v>
   <v name="DARWINV">      1.00000000      1.00000000      1.00000000      1.00000000      1.00000000</v>
   <i type="logical" name="LCORR"> T  </i>
  </separator>
  <i type="logical" name="GGA_COMPAT"> T  </i>
  <i type="logical" name="LBERRY"> F  </i>
  <i type="int" name="ICORELEVEL">     0</i>
  <i type="logical" name="LDAU"> F  </i>
  <i type="int" name="I_CONSTRAINED_M">     0</i>
  <separator name="electronic exchange-correlation" >
   <i type="string" name="GGA">--</i>
   <i type="int" name="VOSKOWN">     0</i>
   <i type="logical" name="LHFCALC"> F  </i>
   <i type="string" name="PRECFOCK"></i>
   <i type="logical" name="LSYMGRAD"> F  </i>
   <i type="logical" name="LHFONE"> F  </i>
   <i type="logical" name="LRHFCALC"> F  </i>
   <i type="logical" name="LTHOMAS"> F  </i>
   <i type="logical" name="LMODELHF"> F  </i>
   <i name="ENCUT4O">     -1.00000000</i>
   <i type="int" name="EXXOEP">     0</i>
   <i type="int" name="FOURORBIT">     0</i>
   <i name="AEXX">      0.00000000</i>
   <i name="HFALPHA">      0.00000000</i>
   <i name="MCALPHA">      0.00000000</i>
   <i name="ALDAX">      1.00000000</i>
   <i name="AGGAX">      1.00000000</i>
   <i name="ALDAC">      1.00000000</i>
   <i name="AGGAC">      1.00000000</i>
   <i type="int" name="NKREDX">     1</i>
   <i type="int" name="NKREDY">     1</i>
   <i type="int" name="NKREDZ">     1</i>
   <i type="logical" name="SHIFTRED"> F  </i>
   <i type="logical" name="ODDONLY"> F  </i>
   <i type="logical" name="EVENONLY"> F  </i>
   <i type="int" name="LMAXFOCK">     0</i>
   <i type="int" name="NMAXFOCKAE">     0</i>
   <i type="logical" name="LFOCKAEDFT"> F  </i>
   <i name="HFSCREEN">      0.00000000</i>
   <i name="HFSCREENC">      0.00000000</i>
   <i type="int" name="NBANDSGWLOW">     0</i>
  </separator>
  <separator name="vdW DFT" >
   <i type="logical" name="LUSE_VDW"> F  </i>
   <i name="Zab_VDW">     -0.84910000</i>
   <i name="PARAM1">      0.12340000</i>
   <i name="PARAM2">      1.00000000</i>
   <i name="PARAM3">      0.00000000</i>
  </separator>
  <separator name="model GW" >
   <i type="int" name="MODEL_GW">     0</i>
   <i name="MODEL_EPS0">     11.18121409</i>
   <i name="MODEL_ALPHA">      1.00000000</i>
  </separator>
  <separator name="linear response parameters" >
   <i type="logical" name="LEPSILON"> F  </i>
   <i type="logical" name="LRPA"> F  </i>
   <i type="logical" name="LNABLA"> F  </i>
   <i type="logical" name="LVEL"> F  </i>
   <i type="int" name="KINTER">     0</i>
   <i name="CSHIFT">      0.10000000</i>
   <i name="OMEGAMAX">     -1.00000000</i>
   <i name="DEG_THRESHOLD">      0.00200000</i>
  </separator>
  <separator name="orbital magnetization" >
   <i type="logical" name="NUCIND"> F  </i>
   <v name="MAGPOS">      0.00000000      0.00000000      0.00000000</v>
   <i type="logical" name="LNICSALL"> T  </i>
   <i type="logical" name="ORBITALMAG"> F  </i>
   <i type="logical" name="LMAGBLOCH"> F  </i>
   <i type="logical" name="LCHIMAG"> F  </i>
   <i type="logical" name="LGAUGE"> T  </i>
   <i type="int" name="MAGATOM">     0</i>
   <v name="MAGDIPOL">      0.00000000      0.00000000      0.00000000</v>
   <v name="AVECCONST">      0.00000000      0.00000000      0.00000000</v>
  </separator>
  <separator name="response functions" >
   <i type="logical" name="LADDER"> F  </i>
   <i type="logical" name="LFXC"> F  </i>
   <i type="logical" name="LHARTREE"> T  </i>
   <i type="int" name="IBSE">     0</i>
   <v type="int" name="KPOINT">    -1     0     0     0</v>
   <i type="logical" name="LTCTE"> F  </i>
   <i type="logical" name="LTETE"> F  </i>
   <i type="logical" name="LTRIPLET"> F  </i>
   <i type="logical" name="LFXCEPS"> F  </i>
   <i type="logical" name="LFXHEG"> F  </i>
   <i type="int" name="NATURALO">     0</i>
   <i type="logical" name="L2ORDER"> F  </i>
   <i type="logical" name="LUSEW"> F  </i>
   <i name="ENCUTGW">     -2.00000000</i>
   <i name="ENCUTGWSOFT">     -2.00000000</i>
   <i name="ENCUTLF">     -1.00000000</i>
   <i type="int" name="LMAXMP2">    -1</i>
   <i name="SCISSOR">      0.00000000</i>
   <i type="int" name="NOMEGA">     0</i>
   <i type="int" name="NOMEGAR">     0</i>
   <i type="int" name="NBANDSGW">    -1</i>
   <i type="int" name="NBANDSO">    -1</i>
   <i type="int" name="NBANDSV">    -1</i>
   <i type="int" name="NELM">   300</i>
   <i type="int" name="NELMHF">     1</i>
   <i type="int" name="DIM">     3</i>
   <i type="int" name="ANTIRES">     0</i>
   <i name="OMEGAMAX">    -30.00000000</i>
   <i name="OMEGAMIN">    -30.00000000</i>
   <i name="OMEGATL">   -200.00000000</i>
   <i type="int" name="OMEGAGRID">     0</i>
   <i name="CSHIFT">     -0.10000000</i>
   <i type="logical" name="SELFENERGY"> F  </i>
   <i type="logical" name="LSPECTRAL"> F  </i>
   <i type="logical" name="LSPECTRALGW"> F  </i>
   <i type="logical" name="LSINGLES"> F  </i>
   <i type="logical" name="LFERMIGW"> F  </i>
   <i type="logical" name="ODDONLYGW"> F  </i>
   <i type="logical" name="EVENONLYGW"> F  </i>
   <i type="int" name="NKREDLFX">     1</i>
   <i type="int" name="NKREDLFY">     1</i>
   <i type="int" name="NKREDLFZ">     1</i>
   <i type="int" name="MAXMEM">  1800</i>
   <i type="int" name="TELESCOPE">     0</i>
   <i type="int" name="TAUPAR">     1</i>
   <i type="int" name="OMEGAPAR">    -1</i>
   <i name="LAMBDA">      1.00000000</i>
  </separator>
  <separator name="External order field" >
   <i name="OFIELD_KAPPA">      0.00000000</i>
   <v name="OFIELD_K">      0.00000000      0.00000000      0.00000000</v>
   <i name="OFIELD_Q6_NEAR">      0.00000000</i>
   <i name="OFIELD_Q6_FAR">      0.00000000</i>
   <i name="OFIELD_A">      0.00000000</i>
  </separator>
 </parameters>
 <atominfo>
  <atoms>      48 </atoms>
  <types>       5 </types>
  <array name="atoms" >
   <dimension dim="1">ion</dimension>
   <field type="string">element</field>
   <field type="int">atomtype</field>
   <set>
    <rc><c>O </c><c>   1</c></rc>
    <rc><c>O </c><c>   1</c></rc>
    <rc><c>O </c><c>   1</c></rc>
    <rc><c>O </c><c>   1</c></rc>
    <rc><c>O </c><c>   1</c></rc>
    <rc><c>O </c><c>   1</c></rc>
    <rc><c>O </c><c>   1</c></rc>
    <rc><c>O </c><c>   1</c></rc>
    <rc><c>O </c><c>   1</c></rc>
    <rc><c>O </c><c>   1</c></rc>
    <rc><c>O </c><c>   1</c></rc>
    <rc><c>O </c><c>   1</c></rc>
    <rc><c>O </c><c>   1</c></rc>
    <rc><c>O </c><c>   1</c></rc>
    <rc><c>O </c><c>   1</c></rc>
    <rc><c>O </c><c>   1</c></rc>
    <rc><c>O </c><c>   1</c></rc>
    <rc><c>O </c><c>   1</c></rc>
    <rc><c>O </c><c>   1</c></rc>
    <rc><c>O </c><c>   1</c></rc>
    <rc><c>O </c><c>   1</c></rc>
    <rc><c>O </c><c>   1</c></rc>
    <rc><c>O </c><c>   1</c></rc>
    <rc><c>O </c><c>   1</c></rc>
    <rc><c>O </c><c>   1</c></rc>
    <rc><c>O </c><c>   1</c></rc>
    <rc><c>O </c><c>   1</c></rc>
    <rc><c>O </c><c>   1</c></rc>
    <rc><c>O </c><c>   1</c></rc>
    <rc><c>O </c><c>   1</c></rc>
    <rc><c>O </c><c>   1</c></rc>
    <rc><c>O </c><c>   1</c></rc>
    <rc><c>Rh</c><c>   2</c></rc>
    <rc><c>Os</c><c>   3</c></rc>
    <rc><c>Ir</c><c>   4</c></rc>
    <rc><c>Ir</c><c>   4</c></rc>
    <rc><c>Ir</c><c>   4</c></rc>
    <rc><c>Ir</c><c>   4</c></rc>
    <rc><c>Ir</c><c>   4</c></rc>
    <rc><c>Ir</c><c>   4</c></rc>
    <rc><c>Ir</c><c>   4</c></rc>
    <rc><c>Ir</c><c>   4</c></rc>
    <rc><c>Ir</c><c>   4</c></rc>
    <rc><c>Ir</c><c>   4</c></rc>
    <rc><c>Ir</c><c>   4</c></rc>
    <rc><c>Ir</c><c>   4</c></rc>
    <rc><c>Ir</c><c>   4</c></rc>
    <rc><c>Pt</c><c>   5</c></rc>
   </set>
  </array>
  <array name="atomtypes" >
   <dimension dim="1">type</dimension>
   <field type="int">atomspertype</field>
   <field type="string">element</field>
   <field>mass</field>
   <field>valence</field>
   <field type="string">pseudopotential</field>
   <set>
    <rc><c>  32</c><c>O </c><c>     16.00000000</c><c>      6.00000000</c><c>  PAW_PBE O 08Apr2002                   </c></rc>
    <rc><c>   1</c><c>Rh</c><c>    102.90600000</c><c>      9.00000000</c><c>  PAW_PBE Rh 04Feb2005                  </c></rc>
    <rc><c>   1</c><c>Os</c><c>    190.20000000</c><c>      8.00000000</c><c>  PAW_PBE Os 17Jan2003                  </c></rc>
    <rc><c>  13</c><c>Ir</c><c>    192.22000000</c><c>      9.00000000</c><c>  PAW_PBE Ir 06Sep2000                  </c></rc>
    <rc><c>   1</c><c>Pt</c><c>    195.08000000</c><c>     10.00000000</c><c>  PAW_PBE Pt 04Feb2005                  </c></rc>
   </set>
  </array>
 </atominfo>
 <structure name="initialpos" >
  <crystal>
   <varray name="basis" >
    <v>       6.36215693       0.00000000       0.00000000 </v>
    <v>       0.00000000       6.38448299       0.00000000 </v>
    <v>       0.00000000       0.00000000      22.02159841 </v>
   </varray>
   <i name="volume">    894.49712699 </i>
   <varray name="rec_basis" >
    <v>       0.15717940       0.00000000       0.00000000 </v>
    <v>       0.00000000       0.15662975       0.00000000 </v>
    <v>       0.00000000       0.00000000       0.04540996 </v>
   </varray>
  </crystal>
  <varray name="positions" >
   <v>       0.08911000       0.35546000       0.00000000 </v>
   <v>       0.58911000       0.35546000       0.00000000 </v>
   <v>       0.33911000       0.04693000       0.05551000 </v>
   <v>       0.83911000       0.04693000       0.05551000 </v>
   <v>       0.33911000       0.66399000       0.05551000 </v>
   <v>       0.83911000       0.66399000       0.05551000 </v>
   <v>       0.08911000       0.35546000       0.11102000 </v>
   <v>       0.58911000       0.35546000       0.11102000 </v>
   <v>       0.58911000       0.85546000       0.14496000 </v>
   <v>       0.08911000       0.85546000       0.14496000 </v>
   <v>       0.33911000       0.16399000       0.20047000 </v>
   <v>       0.83911000       0.16399000       0.20047000 </v>
   <v>       0.33911000       0.54693000       0.20047000 </v>
   <v>       0.83911000       0.54693000       0.20047000 </v>
   <v>       0.08911000       0.85546000       0.25598000 </v>
   <v>       0.58911000       0.85546000       0.25598000 </v>
   <v>       0.08914000       0.35542000       0.28947000 </v>
   <v>       0.58914000       0.35542000       0.28947000 </v>
   <v>       0.33913000       0.04670000       0.34597000 </v>
   <v>       0.83913000       0.04670000       0.34597000 </v>
   <v>       0.33911000       0.66418000       0.34595000 </v>
   <v>       0.83911000       0.66418000       0.34595000 </v>
   <v>       0.08916000       0.35571000       0.39990000 </v>
   <v>       0.58916000       0.35571000       0.39990000 </v>
   <v>       0.08915000       0.85549000       0.43609000 </v>
   <v>       0.58915000       0.85549000       0.43609000 </v>
   <v>       0.33914000       0.16538000       0.49406000 </v>
   <v>       0.83914000       0.16538000       0.49406000 </v>
   <v>       0.33915000       0.54556000       0.49405000 </v>
   <v>       0.83915000       0.54556000       0.49405000 </v>
   <v>       0.08915000       0.85548000       0.54665000 </v>
   <v>       0.58915000       0.85548000       0.54665000 </v>
   <v>       0.33915000       0.85545000       0.49288000 </v>
   <v>       0.83915000       0.85545000       0.49288000 </v>
   <v>       0.33911000       0.35546000       0.05551000 </v>
   <v>       0.83911000       0.35546000       0.05551000 </v>
   <v>       0.08911000       0.85546000       0.05551000 </v>
   <v>       0.58911000       0.85546000       0.05551000 </v>
   <v>       0.08911000       0.35546000       0.20047000 </v>
   <v>       0.58911000       0.35546000       0.20047000 </v>
   <v>       0.33911000       0.85546000       0.20047000 </v>
   <v>       0.83911000       0.85546000       0.20047000 </v>
   <v>       0.83914000       0.35543000       0.34488000 </v>
   <v>       0.33914000       0.35543000       0.34488000 </v>
   <v>       0.08911000       0.85543000       0.34634000 </v>
   <v>       0.58911000       0.85543000       0.34634000 </v>
   <v>       0.08913000       0.35545000       0.48811000 </v>
   <v>       0.58913000       0.35545000       0.48811000 </v>
  </varray>
  <varray name="selective"  type="logical" >
   <v type="logical" >  F  F  F </v>
   <v type="logical" >  F  F  F </v>
   <v type="logical" >  F  F  F </v>
   <v type="logical" >  F  F  F </v>
   <v type="logical" >  F  F  F </v>
   <v type="logical" >  F  F  F </v>
   <v type="logical" >  F  F  F </v>
   <v type="logical" >  F  F  F </v>
   <v type="logical" >  F  F  F </v>
   <v type="logical" >  F  F  F </v>
   <v type="logical" >  F  F  F </v>
   <v type="logical" >  F  F  F </v>
   <v type="logical" >  F  F  F </v>
   <v type="logical" >  F  F  F </v>
   <v type="logical" >  F  F  F </v>
   <v type="logical" >  F  F  F </v>
   <v type="logical" >  T  T  T </v>
   <v type="logical" >  T  T  T </v>
   <v type="logical" >  T  T  T </v>
   <v type="logical" >  T  T  T </v>
   <v type="logical" >  T  T  T </v>
   <v type="logical" >  T  T  T </v>
   <v type="logical" >  T  T  T </v>
   <v type="logical" >  T  T  T </v>
   <v type="logical" >  T  T  T </v>
   <v type="logical" >  T  T  T </v>
   <v type="logical" >  T  T  T </v>
   <v type="logical" >  T  T  T </v>
   <v type="logical" >  T  T  T </v>
   <v type="logical" >  T  T  T </v>
   <v type="logical" >  T  T  T </v>
   <v type="logical" >  T  T  T </v>
   <v type="logical" >  T  T  T </v>
   <v type="logical" >  T  T  T </v>
   <v type="logical" >  F  F  F </v>
   <v type="logical" >  F  F  F </v>
   <v type="logical" >  F  F  F </v>
   <v type="logical" >  F  F  F </v>
   <v type="logical" >  F  F  F </v>
   <v type="logical" >  F  F  F </v>
   <v type="logical" >  F  F  F </v>
   <v type="logical" >  F  F  F </v>
   <v type="logical" >  T  T  T </v>
   <v type="logical" >  T  T  T </v>
   <v type="logical" >  T  T  T </v>
   <v type="logical" >  T  T  T </v>
   <v type="logical" >  T  T  T </v>
   <v type="logical" >  T  T  T </v>
  </varray>
  <nose>
   <v>      -3.00000000       0.00000000       0.00010000       0.00010000 </v>
  </nose>
 </structure>
 <calculation>
  <scstep>
   <time name="dav">   28.62   28.62</time>
   <time name="total">   28.94   28.95</time>
   <energy>
    <i name="alphaZ">   1006.71734735 </i>
    <i name="ewald">  63486.37926468 </i>
    <i name="hartreedc"> -86629.22179993 </i>
    <i name="XCdc">    626.31517034 </i>
    <i name="pawpsdc">  19984.65359284 </i>
    <i name="pawaedc"> -19396.07224279 </i>
    <i name="eentropy">     -0.02600873 </i>
    <i name="bandstr">   1560.73830103 </i>
    <i name="atom">  22880.89309640 </i>
    <i name="e_fr_energy">   3520.37672120 </i>
    <i name="e_wo_entrp">   3520.40272992 </i>
    <i name="e_0_energy">   3520.38972556 </i>
   </energy>
  </scstep>
  <scstep>
   <time name="dav">   29.70   29.71</time>
   <time name="total">   29.70   29.72</time>
   <energy>
    <i name="e_fr_energy">    135.63405082 </i>
    <i name="e_wo_entrp">    135.65842318 </i>
    <i name="e_0_energy">    135.64623700 </i>
   </energy>
  </scstep>
  <scstep>
   <time name="dav">   33.07   33.07</time>
   <time name="total">   33.07   33.08</time>
   <energy>
    <i name="e_fr_energy">   -361.64080286 </i>
    <i name="e_wo_entrp">   -361.61008491 </i>
    <i name="e_0_energy">   -361.62544389 </i>
   </energy>
  </scstep>
  <scstep>
   <time name="dav">   33.82   33.82</time>
   <time name="total">   33.82   33.83</time>
   <energy>
    <i name="e_fr_energy">   -384.37010802 </i>
    <i name="e_wo_entrp">   -384.33968206 </i>
    <i name="e_0_energy">   -384.35489504 </i>
   </energy>
  </scstep>
  <scstep>
   <time name="dav">   33.54   33.55</time>
   <time name="total">   34.46   34.47</time>
   <energy>
    <i name="e_fr_energy">   -384.97823503 </i>
    <i name="e_wo_entrp">   -384.94783774 </i>
    <i name="e_0_energy">   -384.96303639 </i>
   </energy>
  </scstep>
  <scstep>
   <time name="diag">    4.79    4.79</time>
   <time name="diis">   15.65   15.66</time>
   <time name="orth">    0.97    0.97</time>
   <time name="total">   22.64   22.66</time>
   <energy>
    <i name="e_fr_energy">   -291.74104010 </i>
    <i name="e_wo_entrp">   -291.71932323 </i>
    <i name="e_0_energy">   -291.73018166 </i>
   </energy>
  </scstep>
  <scstep>
   <time name="diag">    4.78    4.78</time>
   <time name="diis">   15.70   15.71</time>
   <time name="orth">    0.97    0.97</time>
   <time name="total">   22.68   22.69</time>
   <energy>
    <i name="e_fr_energy">   -454.56673602 </i>
    <i name="e_wo_entrp">   -454.53470060 </i>
    <i name="e_0_energy">   -454.55071831 </i>
   </energy>
  </scstep>
  <scstep>
   <time name="diag">    4.79    4.79</time>
   <time name="diis">   15.67   15.67</time>
   <time name="orth">    0.97    0.97</time>
   <time name="total">   22.65   22.66</time>
   <energy>
    <i name="e_fr_energy">   -338.51973631 </i>
    <i name="e_wo_entrp">   -338.49388477 </i>
    <i name="e_0_energy">   -338.50681054 </i>
   </energy>
  </scstep>
  <scstep>
   <time name="diag">    4.79    4.79</time>
   <time name="diis">   15.63   15.63</time>
   <time name="orth">    0.97    0.97</time>
   <time name="total">   22.61   22.62</time>
   <energy>
    <i name="e_fr_energy">   -324.65984240 </i>
    <i name="e_wo_entrp">   -324.63630225 </i>
    <i name="e_0_energy">   -324.64807232 </i>
   </energy>
  </scstep>
  <scstep>
   <time name="diag">    4.79    4.79</time>
   <time name="diis">   15.62   15.62</time>
   <time name="orth">    0.97    0.97</time>
   <time name="total">   22.60   22.61</time>
   <energy>
    <i name="e_fr_energy">   -307.03314326 </i>
    <i name="e_wo_entrp">   -307.01075526 </i>
    <i name="e_0_energy">   -307.02194926 </i>
   </energy>
  </scstep>
  <scstep>
   <time name="diag">    4.77    4.77</time>
   <time name="diis">   15.67   15.67</time>
   <time name="orth">    0.97    0.97</time>
   <time name="total">   22.62   22.63</time>
   <energy>
    <i name="e_fr_energy">   -285.94127712 </i>
    <i name="e_wo_entrp">   -285.89994101 </i>
    <i name="e_0_energy">   -285.92060907 </i>
   </energy>
  </scstep>
  <scstep>
   <time name="diag">    4.77    4.77</time>
   <time name="diis">   15.67   15.68</time>
   <time name="orth">    0.97    0.97</time>
   <time name="total">   22.64   22.65</time>
   <energy>
    <i name="e_fr_energy">   -295.22683172 </i>
    <i name="e_wo_entrp">   -295.19302471 </i>
    <i name="e_0_energy">   -295.20992821 </i>
   </energy>
  </scstep>
  <scstep>
   <time name="diag">    4.77    4.78</time>
   <time name="diis">   15.67   15.68</time>
   <time name="orth">    0.97    0.97</time>
   <time name="total">   22.64   22.65</time>
   <energy>
    <i name="e_fr_energy">   -286.48314214 </i>
    <i name="e_wo_entrp">   -286.45316298 </i>
    <i name="e_0_energy">   -286.46815256 </i>
   </energy>
  </scstep>
  <scstep>
   <time name="diag">    4.77    4.77</time>
   <time name="diis">   15.67   15.67</time>
   <time name="orth">    0.97    0.97</time>
   <time name="total">   22.62   22.63</time>
   <energy>
    <i name="e_fr_energy">   -293.88477165 </i>
    <i name="e_wo_entrp">   -293.84773742 </i>
    <i name="e_0_energy">   -293.86625453 </i>
   </energy>
  </scstep>
  <scstep>
   <time name="diag">    4.76    4.76</time>
