 running on   24 total cores
 distrk:  each k-point on   24 cores,    1 groups
 distr:  one band on    6 cores,    4 groups
 using from now: INCAR     
vasp.5.4.1 08Jul2015 (build Apr 24 2014 00:09:29) complex standard with constrain (TS)    
 POSCAR found type information on POSCAR  O  Ru Ir
 POSCAR found :  3 types and      48 ions
 scaLAPACK will be used
 LDA part: xc-table for Pade appr. of Perdew
 POSCAR, INCAR and KPOINTS ok, starting setup
 FFT: planning ...
 WAVECAR not read
 entering main loop
       N       E                     dE             d eps       ncg     rms          rms(c)
DAV:   1     0.364730475486E+04    0.36473E+04   -0.15306E+05  9128   0.132E+03
DAV:   2     0.161839233837E+03   -0.34855E+04   -0.31842E+04  9560   0.382E+02
DAV:   3    -0.362620459607E+03   -0.52446E+03   -0.49917E+03 11176   0.162E+02
DAV:   4    -0.386526671188E+03   -0.23906E+02   -0.23494E+02 11384   0.368E+01
DAV:   5    -0.387135183586E+03   -0.60851E+00   -0.60650E+00 11264   0.569E+00    0.132E+02
RMM:   6    -0.296448965396E+03    0.90686E+02   -0.36938E+02  9136   0.388E+01    0.782E+01
RMM:   7    -0.436270538744E+03   -0.13982E+03   -0.10048E+02  9200   0.181E+01    0.178E+02
RMM:   8    -0.320801750459E+03    0.11547E+03   -0.12839E+01  9123   0.876E+00    0.717E+01
RMM:   9    -0.348643643960E+03   -0.27842E+02   -0.40994E+01  9127   0.124E+01    0.120E+02
RMM:  10    -0.288981571879E+03    0.59662E+02   -0.11987E+01  9133   0.694E+00    0.376E+01
RMM:  11    -0.298949389913E+03   -0.99678E+01   -0.24250E+01  9121   0.947E+00    0.374E+01
RMM:  12    -0.292898334286E+03    0.60511E+01   -0.56220E+00  9129   0.497E+00    0.232E+01
RMM:  13    -0.293271897207E+03   -0.37356E+00   -0.18753E+00  9120   0.303E+00    0.145E+01
RMM:  14    -0.299862921777E+03   -0.65910E+01   -0.20607E+00  9130   0.296E+00    0.141E+01
RMM:  15    -0.306564348957E+03   -0.67014E+01   -0.23940E+00  9120   0.310E+00    0.104E+01
RMM:  16    -0.315528750121E+03   -0.89644E+01   -0.47673E+00  9121   0.410E+00    0.101E+01
RMM:  17    -0.324538376497E+03   -0.90096E+01   -0.86577E+00  9120   0.492E+00    0.954E+00
RMM:  18    -0.327940373308E+03   -0.34020E+01   -0.31385E+00  9125   0.300E+00    0.774E+00
RMM:  19    -0.328994825029E+03   -0.10545E+01   -0.74196E-01  9124   0.156E+00    0.735E+00
RMM:  20    -0.329775137286E+03   -0.78031E+00   -0.33181E-01  9120   0.101E+00    0.658E+00
RMM:  21    -0.330136194331E+03   -0.36106E+00   -0.12879E-01  9120   0.608E-01    0.661E+00
RMM:  22    -0.330451711373E+03   -0.31552E+00   -0.79817E-02  9120   0.545E-01    0.582E+00
RMM:  23    -0.330829582824E+03   -0.37787E+00   -0.13306E-01  9120   0.679E-01    0.469E+00
RMM:  24    -0.330969327475E+03   -0.13974E+00   -0.10845E-01  9129   0.611E-01    0.246E+00
RMM:  25    -0.331043190023E+03   -0.73863E-01   -0.30886E-02  9149   0.376E-01    0.188E+00
RMM:  26    -0.331112089612E+03   -0.68900E-01   -0.29709E-02  9130   0.330E-01    0.216E+00
RMM:  27    -0.331100620093E+03    0.11470E-01   -0.12466E-02  9120   0.224E-01    0.127E+00
RMM:  28    -0.331066281782E+03    0.34338E-01   -0.82939E-03  9123   0.174E-01    0.113E+00
RMM:  29    -0.331043053765E+03    0.23228E-01   -0.34255E-03  9092   0.119E-01    0.931E-01
RMM:  30    -0.331034441845E+03    0.86119E-02   -0.19397E-03  8881   0.890E-02    0.844E-01
RMM:  31    -0.331039456556E+03   -0.50147E-02   -0.72020E-04  8118   0.579E-02    0.735E-01
RMM:  32    -0.331048625292E+03   -0.91687E-02   -0.37371E-04  6713   0.390E-02    0.612E-01
RMM:  33    -0.331067642661E+03   -0.19017E-01   -0.10963E-03  8065   0.560E-02    0.404E-01
RMM:  34    -0.331083693780E+03   -0.16051E-01   -0.67922E-04  6827   0.420E-02    0.273E-01
RMM:  35    -0.331097325562E+03   -0.13632E-01   -0.52962E-04  6372   0.350E-02    0.207E-01
RMM:  36    -0.331109175941E+03   -0.11850E-01   -0.45209E-04  6212   0.327E-02    0.134E-01
RMM:  37    -0.331123922572E+03   -0.14747E-01   -0.74768E-04  6678   0.354E-02    0.950E-02
RMM:  38    -0.331129047102E+03   -0.51245E-02   -0.28682E-04  5971   0.228E-02    0.862E-02
RMM:  39    -0.331131129142E+03   -0.20820E-02   -0.99277E-05  5432   0.154E-02    0.808E-02
RMM:  40    -0.331132756001E+03   -0.16269E-02   -0.75272E-05  5083   0.129E-02    0.740E-02
RMM:  41    -0.331133968530E+03   -0.12125E-02   -0.86964E-05  5115   0.119E-02    0.680E-02
RMM:  42    -0.331134424204E+03   -0.45567E-03   -0.39636E-05  4330   0.914E-03    0.666E-02
RMM:  43    -0.331134645692E+03   -0.22149E-03   -0.19030E-05  4069   0.759E-03    0.624E-02
RMM:  44    -0.331134840536E+03   -0.19484E-03   -0.21510E-05  4166   0.725E-03    0.532E-02
RMM:  45    -0.331134798897E+03    0.41638E-04   -0.13443E-05  3968   0.674E-03
 A1 parameter for BJ-Damping is not reasonable. Taking default.
   1 F= -.34088504E+03 E0= -.34086494E+03  d E =-.340885E+03  mag=     1.1697
 curvature:   0.00 expect dE= 0.000E+00 dE for cont linesearch  0.000E+00
 trial: gam= 0.00000 g(F)=  0.492E-01 g(S)=  0.000E+00 ort = 0.000E+00 (trialstep = 0.100E+01)
 search vector abs. value=  0.492E-01
 bond charge predicted
       N       E                     dE             d eps       ncg     rms          rms(c)
DAV:   1    -0.331177705441E+03   -0.42865E-01   -0.20104E+00  9584   0.229E+00    0.553E-01
RMM:   2    -0.331238601146E+03   -0.60896E-01   -0.57776E-02  9041   0.412E-01    0.345E+00
RMM:   3    -0.331182921451E+03    0.55680E-01   -0.75920E-03  8819   0.174E-01    0.830E-01
RMM:   4    -0.331180700097E+03    0.22214E-02   -0.18781E-03  8499   0.903E-02    0.573E-01
RMM:   5    -0.331178825082E+03    0.18750E-02   -0.11497E-03  7784   0.623E-02    0.308E-01
RMM:   6    -0.331178566713E+03    0.25837E-03   -0.10043E-03  8036   0.609E-02    0.456E-01
RMM:   7    -0.331176598447E+03    0.19683E-02   -0.66603E-04  7392   0.470E-02    0.206E-01
RMM:   8    -0.331176190043E+03    0.40840E-03   -0.26215E-04  6063   0.348E-02    0.196E-01
RMM:   9    -0.331176338886E+03   -0.14884E-03   -0.93619E-05  5209   0.264E-02    0.130E-01
RMM:  10    -0.331176710275E+03   -0.37139E-03   -0.40806E-05  4796   0.144E-02    0.746E-02
RMM:  11    -0.331177152628E+03   -0.44235E-03   -0.22584E-05  4471   0.105E-02    0.516E-02
RMM:  12    -0.331177667191E+03   -0.51456E-03   -0.20650E-05  4284   0.871E-03    0.330E-02
RMM:  13    -0.331178133049E+03   -0.46586E-03   -0.14370E-05  3781   0.692E-03    0.218E-02
RMM:  14    -0.331178464773E+03   -0.33172E-03   -0.77890E-06  3260   0.603E-03    0.126E-02
RMM:  15    -0.331178795565E+03   -0.33079E-03   -0.84814E-06  3215   0.555E-03    0.768E-03
RMM:  16    -0.331178930168E+03   -0.13460E-03   -0.33141E-06  2360   0.465E-03    0.724E-03
RMM:  17    -0.331179060749E+03   -0.13058E-03   -0.24494E-06  2113   0.430E-03    0.683E-03
RMM:  18    -0.331179237834E+03   -0.17709E-03   -0.52708E-06  2719   0.470E-03    0.762E-03
RMM:  19    -0.331179311417E+03   -0.73582E-04   -0.34819E-06  2355   0.443E-03
 A1 parameter for BJ-Damping is not reasonable. Taking default.
   2 F= -.34092794E+03 E0= -.34090898E+03  d E =-.429028E-01  mag=     1.1958
 trial-energy change:   -0.042903  1 .order   -0.042654   -0.049226   -0.036082
 step:   3.7452(harm=  3.7452)  dis= 0.05842  next Energy=  -340.977221 (dE=-0.922E-01)
 bond charge predicted
       N       E                     dE             d eps       ncg     rms          rms(c)
DAV:   1    -0.331209270068E+03   -0.30032E-01   -0.15152E+01  9304   0.632E+00    0.142E+00
RMM:   2    -0.331445918730E+03   -0.23665E+00   -0.38854E-01  9120   0.111E+00    0.653E+00
RMM:   3    -0.331246424116E+03    0.19949E+00   -0.25701E-02  9120   0.361E-01    0.199E+00
RMM:   4    -0.331260984989E+03   -0.14561E-01   -0.11739E-02  9112   0.202E-01    0.247E+00
RMM:   5    -0.331231631732E+03    0.29353E-01   -0.86182E-03  9086   0.170E-01    0.139E+00
RMM:   6    -0.331228546682E+03    0.30851E-02   -0.96989E-03  9058   0.182E-01    0.150E+00
RMM:   7    -0.331215547354E+03    0.12999E-01   -0.51538E-03  8936   0.126E-01    0.932E-01
RMM:   8    -0.331211519470E+03    0.40279E-02   -0.22372E-03  8732   0.937E-02    0.802E-01
RMM:   9    -0.331210468979E+03    0.10505E-02   -0.10198E-03  8050   0.605E-02    0.549E-01
RMM:  10    -0.331213063586E+03   -0.25946E-02   -0.42671E-04  6732   0.390E-02    0.436E-01
RMM:  11    -0.331216186797E+03   -0.31232E-02   -0.32211E-04  6144   0.310E-02    0.340E-01
RMM:  12    -0.331218542371E+03   -0.23556E-02   -0.16693E-04  5543   0.220E-02    0.283E-01
RMM:  13    -0.331221810186E+03   -0.32678E-02   -0.34118E-04  6134   0.267E-02    0.188E-01
RMM:  14    -0.331222835871E+03   -0.10257E-02   -0.12835E-04  5595   0.216E-02    0.136E-01
RMM:  15    -0.331222933639E+03   -0.97768E-04   -0.12129E-04  5576   0.189E-02
 A1 parameter for BJ-Damping is not reasonable. Taking default.
   3 F= -.34096718E+03 E0= -.34094921E+03  d E =-.821407E-01  mag=     1.2065
 curvature:  -1.87 expect dE=-0.247E-01 dE for cont linesearch -0.262E-02
 ZBRENT: interpolating
 opt :   3.2315  next Energy=  -340.969315 (dE=-0.843E-01)
 bond charge predicted
       N       E                     dE             d eps       ncg     rms          rms(c)
DAV:   1    -0.331223595908E+03   -0.76004E-03   -0.53071E-01  9600   0.119E+00    0.291E-01
RMM:   2    -0.331230980011E+03   -0.73841E-02   -0.13383E-02  8689   0.202E-01    0.953E-01
RMM:   3    -0.331225084224E+03    0.58958E-02   -0.87106E-04  7508   0.701E-02    0.430E-01
RMM:   4    -0.331224874677E+03    0.20955E-03   -0.42548E-04  6755   0.417E-02    0.399E-01
RMM:   5    -0.331224450836E+03    0.42384E-03   -0.43449E-04  6787   0.416E-02    0.304E-01
RMM:   6    -0.331224216467E+03    0.23437E-03   -0.31565E-04  6614   0.401E-02    0.259E-01
RMM:   7    -0.331223779279E+03    0.43719E-03   -0.29386E-04  6165   0.353E-02    0.924E-02
RMM:   8    -0.331223845784E+03   -0.66505E-04   -0.80726E-05  5171   0.217E-02
 A1 parameter for BJ-Damping is not reasonable. Taking default.
   4 F= -.34096891E+03 E0= -.34095091E+03  d E =-.838706E-01  mag=     1.1881
 curvature:  -1.52 expect dE=-0.137E-01 dE for cont linesearch -0.188E-04
 trial: gam= 0.16733 g(F)=  0.902E-02 g(S)=  0.000E+00 ort = 0.779E-03 (trialstep = 0.145E+01)
 search vector abs. value=  0.107E-01
 bond charge predicted
       N       E                     dE             d eps       ncg     rms          rms(c)
DAV:   1    -0.331232326081E+03   -0.85468E-02   -0.10208E+00  9584   0.176E+00    0.384E-01
RMM:   2    -0.331236953906E+03   -0.46278E-02   -0.23846E-02  8873   0.303E-01    0.728E-01
RMM:   3    -0.331235059200E+03    0.18947E-02   -0.15959E-03  7966   0.922E-02    0.433E-01
RMM:   4    -0.331235454345E+03   -0.39515E-03   -0.35547E-04  6714   0.396E-02    0.471E-01
RMM:   5    -0.331235297351E+03    0.15699E-03   -0.60268E-04  7141   0.477E-02    0.392E-01
RMM:   6    -0.331235507335E+03   -0.20998E-03   -0.84227E-04  7409   0.508E-02    0.302E-01
RMM:   7    -0.331234892035E+03    0.61530E-03   -0.33253E-04  6517   0.364E-02    0.937E-02
RMM:   8    -0.331234870049E+03    0.21986E-04   -0.82116E-05  5073   0.235E-02
 A1 parameter for BJ-Damping is not reasonable. Taking default.
   5 F= -.34098049E+03 E0= -.34096243E+03  d E =-.115744E-01  mag=     1.1800
 trial-energy change:   -0.011574  1 .order   -0.010546   -0.013228   -0.007863
 step:   2.2141(harm=  3.5663)  dis= 0.00826  next Energy=  -340.982727 (dE=-0.138E-01)
 bond charge predicted
       N       E                     dE             d eps       ncg     rms          rms(c)
DAV:   1    -0.331237457309E+03   -0.25653E-02   -0.28721E-01  9552   0.936E-01    0.209E-01
RMM:   2    -0.331238565719E+03   -0.11084E-02   -0.66937E-03  8613   0.162E-01    0.337E-01
RMM:   3    -0.331238252095E+03    0.31362E-03   -0.46853E-04  6649   0.514E-02    0.236E-01
RMM:   4    -0.331238387376E+03   -0.13528E-03   -0.11953E-04  5359   0.266E-02    0.260E-01
RMM:   5    -0.331238189747E+03    0.19763E-03   -0.16142E-04  5603   0.294E-02    0.183E-01
RMM:   6    -0.331238254916E+03   -0.65169E-04   -0.14289E-04  5433   0.286E-02
 A1 parameter for BJ-Damping is not reasonable. Taking default.
   6 F= -.34098416E+03 E0= -.34096620E+03  d E =-.152514E-01  mag=     1.1767
 curvature:  -1.23 expect dE=-0.218E-02 dE for cont linesearch -0.127E-02
 ZBRENT: increasing intervall
 opt :   3.7497  next Energy=  -340.986007 (dE=-0.171E-01)
 bond charge predicted
       N       E                     dE             d eps       ncg     rms          rms(c)
DAV:   1    -0.331237761144E+03    0.42860E-03   -0.11469E+00  9544   0.187E+00    0.409E-01
RMM:   2    -0.331242469538E+03   -0.47084E-02   -0.26512E-02  8897   0.323E-01    0.709E-01
RMM:   3    -0.331239903468E+03    0.25661E-02   -0.17076E-03  7876   0.956E-02    0.330E-01
RMM:   4    -0.331240618115E+03   -0.71465E-03   -0.51468E-04  7430   0.479E-02    0.422E-01
RMM:   5    -0.331240714728E+03   -0.96614E-04   -0.67803E-04  7814   0.533E-02
 A1 parameter for BJ-Damping is not reasonable. Taking default.
   7 F= -.34098721E+03 E0= -.34096889E+03  d E =-.182958E-01  mag=     1.1766
 curvature:  -1.78 expect dE=-0.219E-02 dE for cont linesearch -0.116E-03
 ZBRENT: bracketing found
 ZBRENT: interpolating
 opt :   3.4413  next Energy=  -340.987336 (dE=-0.184E-01)
 bond charge predicted
       N       E                     dE             d eps       ncg     rms          rms(c)
DAV:   1    -0.331241939355E+03   -0.13212E-02   -0.59889E-02 10048   0.497E-01    0.583E-01
RMM:   2    -0.331457992407E+03   -0.21605E+00   -0.23901E-02  9121   0.282E-01    0.605E+00
RMM:   3    -0.331242778651E+03    0.21521E+00   -0.13040E-02  9121   0.224E-01    0.548E-01
RMM:   4    -0.331239687575E+03    0.30911E-02   -0.16503E-03  8510   0.110E-01    0.195E-01
RMM:   5    -0.331239652328E+03    0.35246E-04   -0.23494E-04  6172   0.397E-02
 A1 parameter for BJ-Damping is not reasonable. Taking default.
   8 F= -.34098603E+03 E0= -.34096803E+03  d E =-.171160E-01  mag=     1.1788
 curvature:  -1.97 expect dE=-0.206E-02 dE for cont linesearch -0.404E-05
 trial: gam= 0.06383 g(F)=  0.105E-02 g(S)=  0.000E+00 ort = 0.148E-03 (trialstep = 0.185E+01)
 search vector abs. value=  0.111E-02
 bond charge predicted
       N       E                     dE             d eps       ncg     rms          rms(c)
DAV:   1    -0.331240474524E+03   -0.78695E-03   -0.16479E-01  9480   0.777E-01    0.125E-01
RMM:   2    -0.331244076759E+03   -0.36022E-02   -0.44538E-03  8841   0.144E-01    0.661E-01
RMM:   3    -0.331240998283E+03    0.30785E-02   -0.39222E-04  6999   0.492E-02    0.212E-01
RMM:   4    -0.331240779929E+03    0.21835E-03   -0.12126E-04  5321   0.292E-02    0.811E-02
RMM:   5    -0.331240807115E+03   -0.27186E-04   -0.66270E-05  4976   0.212E-02
 A1 parameter for BJ-Damping is not reasonable. Taking default.
   9 F= -.34098759E+03 E0= -.34096944E+03  d E =-.156439E-02  mag=     1.1793
 trial-energy change:   -0.001564  1 .order   -0.001470   -0.001950   -0.000990
 step:   3.7481(harm=  3.7481)  dis= 0.00384  next Energy=  -340.988008 (dE=-0.198E-02)
 bond charge predicted
       N       E                     dE             d eps       ncg     rms          rms(c)
DAV:   1    -0.331240624296E+03    0.15563E-03   -0.17463E-01  9552   0.796E-01    0.125E-01
RMM:   2    -0.331242226489E+03   -0.16022E-02   -0.43550E-03  8753   0.141E-01    0.409E-01
RMM:   3    -0.331241135472E+03    0.10910E-02   -0.28546E-04  6340   0.449E-02    0.200E-01
RMM:   4    -0.331240962006E+03    0.17347E-03   -0.93882E-05  5228   0.250E-02    0.126E-01
RMM:   5    -0.331240931003E+03    0.31003E-04   -0.69259E-05  5050   0.214E-02
 A1 parameter for BJ-Damping is not reasonable. Taking default.
  10 F= -.34098814E+03 E0= -.34096990E+03  d E =-.211045E-02  mag=     1.1811
 curvature:  -1.97 expect dE=-0.111E-02 dE for cont linesearch -0.157E-05
 trial: gam= 0.58400 g(F)=  0.564E-03 g(S)=  0.000E+00 ort =-0.298E-04 (trialstep = 0.223E+01)
 search vector abs. value=  0.908E-03
 bond charge predicted
       N       E                     dE             d eps       ncg     rms          rms(c)
DAV:   1    -0.331241405377E+03   -0.44337E-03   -0.22298E-01  9400   0.980E-01    0.124E-01
RMM:   2    -0.331242653963E+03   -0.12486E-02   -0.50862E-03  8846   0.154E-01    0.352E-01
RMM:   3    -0.331241964383E+03    0.68958E-03   -0.28496E-04  6247   0.488E-02    0.173E-01
RMM:   4    -0.331241887543E+03    0.76841E-04   -0.76402E-05  5105   0.237E-02
 A1 parameter for BJ-Damping is not reasonable. Taking default.
  11 F= -.34098915E+03 E0= -.34097097E+03  d E =-.101166E-02  mag=     1.1832
 trial-energy change:   -0.001012  1 .order   -0.000958   -0.001216   -0.000700
 step:   5.2417(harm=  5.2417)  dis= 0.00679  next Energy=  -340.989570 (dE=-0.143E-02)
 bond charge predicted
       N       E                     dE             d eps       ncg     rms          rms(c)
DAV:   1    -0.331241460375E+03    0.50401E-03   -0.40946E-01  9472   0.133E+00    0.162E-01
RMM:   2    -0.331242753199E+03   -0.12928E-02   -0.88407E-03  8866   0.206E-01    0.299E-01
RMM:   3    -0.331242666515E+03    0.86684E-04   -0.43486E-04  6867   0.570E-02
 A1 parameter for BJ-Damping is not reasonable. Taking default.
  12 F= -.34099000E+03 E0= -.34097177E+03  d E =-.186452E-02  mag=     1.1855
 curvature:  -4.35 expect dE=-0.193E-02 dE for cont linesearch -0.497E-05
 trial: gam= 0.76349 g(F)=  0.442E-03 g(S)=  0.000E+00 ort =-0.322E-04 (trialstep = 0.278E+01)
 search vector abs. value=  0.922E-03
 bond charge predicted
       N       E                     dE             d eps       ncg     rms          rms(c)
DAV:   1    -0.331242697371E+03    0.55828E-04   -0.36455E-01  9456   0.124E+00    0.172E-01
RMM:   2    -0.331244668026E+03   -0.19707E-02   -0.77786E-03  8942   0.189E-01    0.477E-01
RMM:   3    -0.331243566965E+03    0.11011E-02   -0.41269E-04  6916   0.554E-02    0.233E-01
RMM:   4    -0.331243338926E+03    0.22804E-03   -0.14102E-04  5406   0.301E-02    0.131E-01
RMM:   5    -0.331243358071E+03   -0.19146E-04   -0.10968E-04  5110   0.269E-02
 A1 parameter for BJ-Damping is not reasonable. Taking default.
  13 F= -.34099033E+03 E0= -.34097207E+03  d E =-.329952E-03  mag=     1.1905
 trial-energy change:   -0.000330  1 .order   -0.000829   -0.001163   -0.000494
 step:   4.8409(harm=  4.8409)  dis= 0.00727  next Energy=  -340.991014 (dE=-0.101E-02)
 reached required accuracy - stopping structural energy minimisation
