<?xml version="1.0" encoding="ISO-8859-1"?>
<modeling>
 <generator>
  <i name="program" type="string">vasp </i>
  <i name="version" type="string">5.4.1  </i>
  <i name="subversion" type="string">08Jul2015 (build Apr 24 2014 00:09:29) complex standard with constrain (TS)     parallel </i>
  <i name="platform" type="string">IBM of Center for Computational Chemistry </i>
  <i name="date" type="string">2018 03 17 </i>
  <i name="time" type="string">20:51:13 </i>
 </generator>
 <incar>
  <i type="int" name="ISTART">     0</i>
  <i type="string" name="PREC">accurate       ! [low/medium/high/norma</i>
  <i type="string" name="ALGO">Fast</i>
  <i type="int" name="ISPIN">     2</i>
  <i type="int" name="NELM">   300</i>
  <i type="int" name="NELMIN">     3</i>
  <i type="int" name="IBRION">     2</i>
  <i name="EDIFFG">     -0.05000000</i>
  <i type="int" name="NSW">  1000</i>
  <i type="int" name="ISIF">     2</i>
  <i type="int" name="ISYM">     0</i>
  <i name="ENCUT">    500.00000000</i>
  <i name="POTIM">      0.10000000</i>
  <i type="string" name="LREAL"> A    ! aproximace, T zpomaluje, ale pre</i>
  <i type="int" name="ISMEAR">     0</i>
  <i name="SIGMA">      0.05000000</i>
  <i type="int" name="NWRITE">     2</i>
  <i type="logical" name="LWAVE"> F  </i>
  <i type="logical" name="LCHARG"> F  </i>
  <v type="int" name="KPOINT_BSE">    -1     0     0     0</v>
  <i type="int" name="NELM">   300</i>
 </incar>
 <kpoints>
  <generation param="Gamma">
   <v type="int" name="divisions">       4        4        1 </v>
   <v name="usershift">      0.00000000       0.00000000       0.00000000 </v>
   <v name="genvec1">      0.25000000       0.00000000       0.00000000 </v>
   <v name="genvec2">      0.00000000       0.25000000       0.00000000 </v>
   <v name="genvec3">      0.00000000       0.00000000       1.00000000 </v>
   <v name="shift">      0.00000000       0.00000000       0.00000000 </v>
  </generation>
  <varray name="kpointlist" >
   <v>       0.00000000       0.00000000       0.00000000 </v>
   <v>       0.25000000       0.00000000       0.00000000 </v>
   <v>       0.50000000       0.00000000       0.00000000 </v>
   <v>       0.00000000       0.25000000       0.00000000 </v>
   <v>       0.25000000       0.25000000       0.00000000 </v>
   <v>       0.50000000       0.25000000       0.00000000 </v>
   <v>      -0.25000000       0.25000000       0.00000000 </v>
   <v>       0.00000000       0.50000000       0.00000000 </v>
   <v>       0.25000000       0.50000000       0.00000000 </v>
   <v>       0.50000000       0.50000000       0.00000000 </v>
  </varray>
  <varray name="weights" >
   <v>       0.06250000 </v>
   <v>       0.12500000 </v>
   <v>       0.06250000 </v>
   <v>       0.12500000 </v>
   <v>       0.12500000 </v>
   <v>       0.12500000 </v>
   <v>       0.12500000 </v>
   <v>       0.06250000 </v>
   <v>       0.12500000 </v>
   <v>       0.06250000 </v>
  </varray>
 </kpoints>
 <parameters>
  <separator name="general" >
   <i type="string" name="SYSTEM"></i>
   <i type="logical" name="LCOMPAT"> F  </i>
  </separator>
  <separator name="electronic" >
   <i type="string" name="PREC">accura</i>
   <i name="ENMAX">    500.00000000</i>
   <i name="ENAUG">    605.39200000</i>
   <i name="EDIFF">      0.00010000</i>
   <i type="int" name="IALGO">    68</i>
   <i type="int" name="IWAVPR">    11</i>
   <i type="int" name="NBANDS">   228</i>
   <i name="NELECT">    335.00000000</i>
   <i type="int" name="TURBO">     0</i>
   <i type="int" name="IRESTART">     0</i>
   <i type="int" name="NREBOOT">     0</i>
   <i type="int" name="NMIN">     0</i>
   <i name="EREF">      0.00000000</i>
   <separator name="electronic smearing" >
    <i type="int" name="ISMEAR">     0</i>
    <i name="SIGMA">      0.05000000</i>
    <i name="KSPACING">      0.50000000</i>
    <i type="logical" name="KGAMMA"> T  </i>
   </separator>
   <separator name="electronic projectors" >
    <i type="logical" name="LREAL"> T  </i>
    <v name="ROPT">     -0.00025000     -0.00025000     -0.00025000</v>
    <i type="int" name="LMAXPAW">  -100</i>
    <i type="int" name="LMAXMIX">     2</i>
    <i type="logical" name="NLSPLINE"> F  </i>
   </separator>
   <separator name="electronic startup" >
    <i type="int" name="ISTART">     0</i>
    <i type="int" name="ICHARG">     2</i>
    <i type="int" name="INIWAV">     1</i>
   </separator>
   <separator name="electronic spin" >
    <i type="int" name="ISPIN">     2</i>
    <i type="logical" name="LNONCOLLINEAR"> F  </i>
    <v name="MAGMOM">      1.00000000      1.00000000      1.00000000      1.00000000      1.00000000      1.00000000      1.00000000      1.00000000      1.00000000      1.00000000      1.00000000      1.00000000      1.00000000      1.00000000      1.00000000      1.00000000      1.00000000      1.00000000      1.00000000      1.00000000
      1.00000000      1.00000000      1.00000000      1.00000000      1.00000000      1.00000000      1.00000000      1.00000000      1.00000000      1.00000000      1.00000000      1.00000000      1.00000000      1.00000000      1.00000000      1.00000000      1.00000000      1.00000000      1.00000000      1.00000000
      1.00000000      1.00000000      1.00000000      1.00000000      1.00000000      1.00000000      1.00000000      1.00000000</v>
    <i name="NUPDOWN">     -1.00000000</i>
    <i type="logical" name="LSORBIT"> F  </i>
    <v name="SAXIS">      0.00000000      0.00000000      1.00000000</v>
    <i type="logical" name="LSPIRAL"> F  </i>
    <v name="QSPIRAL">      0.00000000      0.00000000      0.00000000</v>
    <i type="logical" name="LZEROZ"> F  </i>
   </separator>
   <separator name="electronic exchange-correlation" >
    <i type="logical" name="LASPH"> F  </i>
    <i type="logical" name="LMETAGGA"> F  </i>
   </separator>
   <separator name="electronic convergence" >
    <i type="int" name="NELM">   300</i>
    <i type="int" name="NELMDL">    -5</i>
    <i type="int" name="NELMIN">     3</i>
    <i name="ENINI">    500.00000000</i>
    <separator name="electronic convergence detail" >
     <i type="logical" name="LDIAG"> T  </i>
     <i type="logical" name="LSUBROT"> F  </i>
     <i name="WEIMIN">      0.00100000</i>
     <i name="EBREAK">      0.00000011</i>
     <i name="DEPER">      0.30000000</i>
     <i type="int" name="NRMM">     4</i>
     <i name="TIME">      0.40000000</i>
    </separator>
   </separator>
   <separator name="electronic mixer" >
    <i name="AMIX">      0.40000000</i>
    <i name="BMIX">      1.00000000</i>
    <i name="AMIN">      0.10000000</i>
    <i name="AMIX_MAG">      1.60000000</i>
    <i name="BMIX_MAG">      1.00000000</i>
    <separator name="electronic mixer details" >
     <i type="int" name="IMIX">     4</i>
     <i type="logical" name="MIXFIRST"> F  </i>
     <i type="int" name="MAXMIX">   -45</i>
     <i name="WC">    100.00000000</i>
     <i type="int" name="INIMIX">     1</i>
     <i type="int" name="MIXPRE">     1</i>
     <i type="int" name="MREMOVE">     5</i>
    </separator>
   </separator>
   <separator name="electronic dipolcorrection" >
    <i type="logical" name="LDIPOL"> F  </i>
    <i type="logical" name="LMONO"> F  </i>
    <i type="int" name="IDIPOL">     0</i>
    <i name="EPSILON">      1.00000000</i>
    <v name="DIPOL">   -100.00000000   -100.00000000   -100.00000000</v>
    <i name="EFIELD">      0.00000000</i>
   </separator>
  </separator>
  <separator name="grids" >
   <i type="int" name="NGX">    48</i>
   <i type="int" name="NGY">    48</i>
   <i type="int" name="NGZ">   162</i>
   <i type="int" name="NGXF">    96</i>
   <i type="int" name="NGYF">    96</i>
   <i type="int" name="NGZF">   324</i>
   <i type="logical" name="ADDGRID"> F  </i>
  </separator>
  <separator name="ionic" >
   <i type="int" name="NSW">  1000</i>
   <i type="int" name="IBRION">     2</i>
   <i type="int" name="ISIF">     2</i>
   <i name="PSTRESS">      0.00000000</i>
   <i name="EDIFFG">     -0.05000000</i>
   <i type="int" name="NFREE">     1</i>
   <i name="POTIM">      0.10000000</i>
   <i name="SMASS">     -3.00000000</i>
   <i name="SCALEE">      1.00000000</i>
  </separator>
  <separator name="ionic md" >
   <i name="TEBEG">      0.00010000</i>
   <i name="TEEND">      0.00010000</i>
   <i type="int" name="NBLOCK">     1</i>
   <i type="int" name="KBLOCK">  1000</i>
   <i type="int" name="NPACO">   256</i>
   <i name="APACO">     16.00000000</i>
  </separator>
  <separator name="symmetry" >
   <i type="int" name="ISYM">     0</i>
   <i name="SYMPREC">      0.00001000</i>
  </separator>
  <separator name="dos" >
   <i type="logical" name="LORBIT"> F  </i>
   <v name="RWIGS">     -1.00000000     -1.00000000     -1.00000000</v>
   <i type="int" name="NEDOS">   301</i>
   <i name="EMIN">     10.00000000</i>
   <i name="EMAX">    -10.00000000</i>
   <i name="EFERMI">      0.00000000</i>
  </separator>
  <separator name="writing" >
   <i type="int" name="NWRITE">     2</i>
   <i type="logical" name="LWAVE"> F  </i>
   <i type="logical" name="LCHARG"> F  </i>
   <i type="logical" name="LPARD"> F  </i>
   <i type="logical" name="LVTOT"> F  </i>
   <i type="logical" name="LVHAR"> F  </i>
   <i type="logical" name="LELF"> F  </i>
   <i type="logical" name="LOPTICS"> F  </i>
   <v name="STM">      0.00000000      0.00000000      0.00000000      0.00000000      0.00000000      0.00000000      0.00000000</v>
  </separator>
  <separator name="performance" >
   <i type="int" name="NPAR">     4</i>
   <i type="int" name="NSIM">     4</i>
   <i type="int" name="NBLK">    -1</i>
   <i type="logical" name="LPLANE"> T  </i>
   <i type="logical" name="LSCALAPACK"> T  </i>
   <i type="logical" name="LSCAAWARE"> F  </i>
   <i type="logical" name="LSCALU"> F  </i>
   <i type="logical" name="LASYNC"> F  </i>
   <i type="logical" name="LORBITALREAL"> F  </i>
  </separator>
  <separator name="miscellaneous" >
   <i type="int" name="IDIOT">     3</i>
   <i type="logical" name="LMUSIC"> F  </i>
   <v name="POMASS">     16.00000000    101.07000000    192.22000000</v>
   <v name="DARWINR">      0.00000000      0.00000000      0.00000000</v>
   <v name="DARWINV">      1.00000000      1.00000000      1.00000000</v>
   <i type="logical" name="LCORR"> T  </i>
  </separator>
  <i type="logical" name="GGA_COMPAT"> T  </i>
  <i type="logical" name="LBERRY"> F  </i>
  <i type="int" name="ICORELEVEL">     0</i>
  <i type="logical" name="LDAU"> F  </i>
  <i type="int" name="I_CONSTRAINED_M">     0</i>
  <separator name="electronic exchange-correlation" >
   <i type="string" name="GGA">--</i>
   <i type="int" name="VOSKOWN">     0</i>
   <i type="logical" name="LHFCALC"> F  </i>
   <i type="string" name="PRECFOCK"></i>
   <i type="logical" name="LSYMGRAD"> F  </i>
   <i type="logical" name="LHFONE"> F  </i>
   <i type="logical" name="LRHFCALC"> F  </i>
   <i type="logical" name="LTHOMAS"> F  </i>
   <i type="logical" name="LMODELHF"> F  </i>
   <i name="ENCUT4O">     -1.00000000</i>
   <i type="int" name="EXXOEP">     0</i>
   <i type="int" name="FOURORBIT">     0</i>
   <i name="AEXX">      0.00000000</i>
   <i name="HFALPHA">      0.00000000</i>
   <i name="MCALPHA">      0.00000000</i>
   <i name="ALDAX">      1.00000000</i>
   <i name="AGGAX">      1.00000000</i>
   <i name="ALDAC">      1.00000000</i>
   <i name="AGGAC">      1.00000000</i>
   <i type="int" name="NKREDX">     1</i>
   <i type="int" name="NKREDY">     1</i>
   <i type="int" name="NKREDZ">     1</i>
   <i type="logical" name="SHIFTRED"> F  </i>
   <i type="logical" name="ODDONLY"> F  </i>
   <i type="logical" name="EVENONLY"> F  </i>
   <i type="int" name="LMAXFOCK">     0</i>
   <i type="int" name="NMAXFOCKAE">     0</i>
   <i type="logical" name="LFOCKAEDFT"> F  </i>
   <i name="HFSCREEN">      0.00000000</i>
   <i name="HFSCREENC">      0.00000000</i>
   <i type="int" name="NBANDSGWLOW">     0</i>
  </separator>
  <separator name="vdW DFT" >
   <i type="logical" name="LUSE_VDW"> F  </i>
   <i name="Zab_VDW">     -0.84910000</i>
   <i name="PARAM1">      0.12340000</i>
   <i name="PARAM2">      1.00000000</i>
   <i name="PARAM3">      0.00000000</i>
  </separator>
  <separator name="model GW" >
   <i type="int" name="MODEL_GW">     0</i>
   <i name="MODEL_EPS0">     11.18121409</i>
   <i name="MODEL_ALPHA">      1.00000000</i>
  </separator>
  <separator name="linear response parameters" >
   <i type="logical" name="LEPSILON"> F  </i>
   <i type="logical" name="LRPA"> F  </i>
   <i type="logical" name="LNABLA"> F  </i>
   <i type="logical" name="LVEL"> F  </i>
   <i type="int" name="KINTER">     0</i>
   <i name="CSHIFT">      0.10000000</i>
   <i name="OMEGAMAX">     -1.00000000</i>
   <i name="DEG_THRESHOLD">      0.00200000</i>
  </separator>
  <separator name="orbital magnetization" >
   <i type="logical" name="NUCIND"> F  </i>
   <v name="MAGPOS">      0.00000000      0.00000000      0.00000000</v>
   <i type="logical" name="LNICSALL"> T  </i>
   <i type="logical" name="ORBITALMAG"> F  </i>
   <i type="logical" name="LMAGBLOCH"> F  </i>
   <i type="logical" name="LCHIMAG"> F  </i>
   <i type="logical" name="LGAUGE"> T  </i>
   <i type="int" name="MAGATOM">     0</i>
   <v name="MAGDIPOL">      0.00000000      0.00000000      0.00000000</v>
   <v name="AVECCONST">      0.00000000      0.00000000      0.00000000</v>
  </separator>
  <separator name="response functions" >
   <i type="logical" name="LADDER"> F  </i>
   <i type="logical" name="LFXC"> F  </i>
   <i type="logical" name="LHARTREE"> T  </i>
   <i type="int" name="IBSE">     0</i>
   <v type="int" name="KPOINT">    -1     0     0     0</v>
   <i type="logical" name="LTCTE"> F  </i>
   <i type="logical" name="LTETE"> F  </i>
   <i type="logical" name="LTRIPLET"> F  </i>
   <i type="logical" name="LFXCEPS"> F  </i>
   <i type="logical" name="LFXHEG"> F  </i>
   <i type="int" name="NATURALO">     0</i>
   <i type="logical" name="L2ORDER"> F  </i>
   <i type="logical" name="LUSEW"> F  </i>
   <i name="ENCUTGW">     -2.00000000</i>
   <i name="ENCUTGWSOFT">     -2.00000000</i>
   <i name="ENCUTLF">     -1.00000000</i>
   <i type="int" name="LMAXMP2">    -1</i>
   <i name="SCISSOR">      0.00000000</i>
   <i type="int" name="NOMEGA">     0</i>
   <i type="int" name="NOMEGAR">     0</i>
   <i type="int" name="NBANDSGW">    -1</i>
   <i type="int" name="NBANDSO">    -1</i>
   <i type="int" name="NBANDSV">    -1</i>
   <i type="int" name="NELM">   300</i>
   <i type="int" name="NELMHF">     1</i>
   <i type="int" name="DIM">     3</i>
   <i type="int" name="ANTIRES">     0</i>
   <i name="OMEGAMAX">    -30.00000000</i>
   <i name="OMEGAMIN">    -30.00000000</i>
   <i name="OMEGATL">   -200.00000000</i>
   <i type="int" name="OMEGAGRID">     0</i>
   <i name="CSHIFT">     -0.10000000</i>
   <i type="logical" name="SELFENERGY"> F  </i>
   <i type="logical" name="LSPECTRAL"> F  </i>
   <i type="logical" name="LSPECTRALGW"> F  </i>
   <i type="logical" name="LSINGLES"> F  </i>
   <i type="logical" name="LFERMIGW"> F  </i>
   <i type="logical" name="ODDONLYGW"> F  </i>
   <i type="logical" name="EVENONLYGW"> F  </i>
   <i type="int" name="NKREDLFX">     1</i>
   <i type="int" name="NKREDLFY">     1</i>
   <i type="int" name="NKREDLFZ">     1</i>
   <i type="int" name="MAXMEM">  1800</i>
   <i type="int" name="TELESCOPE">     0</i>
   <i type="int" name="TAUPAR">     1</i>
   <i type="int" name="OMEGAPAR">    -1</i>
   <i name="LAMBDA">      1.00000000</i>
  </separator>
  <separator name="External order field" >
   <i name="OFIELD_KAPPA">      0.00000000</i>
   <v name="OFIELD_K">      0.00000000      0.00000000      0.00000000</v>
   <i name="OFIELD_Q6_NEAR">      0.00000000</i>
   <i name="OFIELD_Q6_FAR">      0.00000000</i>
   <i name="OFIELD_A">      0.00000000</i>
  </separator>
 </parameters>
 <atominfo>
  <atoms>      48 </atoms>
  <types>       3 </types>
  <array name="atoms" >
   <dimension dim="1">ion</dimension>
   <field type="string">element</field>
   <field type="int">atomtype</field>
   <set>
    <rc><c>O </c><c>   1</c></rc>
    <rc><c>O </c><c>   1</c></rc>
    <rc><c>O </c><c>   1</c></rc>
    <rc><c>O </c><c>   1</c></rc>
    <rc><c>O </c><c>   1</c></rc>
    <rc><c>O </c><c>   1</c></rc>
    <rc><c>O </c><c>   1</c></rc>
    <rc><c>O </c><c>   1</c></rc>
    <rc><c>O </c><c>   1</c></rc>
    <rc><c>O </c><c>   1</c></rc>
    <rc><c>O </c><c>   1</c></rc>
    <rc><c>O </c><c>   1</c></rc>
    <rc><c>O </c><c>   1</c></rc>
    <rc><c>O </c><c>   1</c></rc>
    <rc><c>O </c><c>   1</c></rc>
    <rc><c>O </c><c>   1</c></rc>
    <rc><c>O </c><c>   1</c></rc>
    <rc><c>O </c><c>   1</c></rc>
    <rc><c>O </c><c>   1</c></rc>
    <rc><c>O </c><c>   1</c></rc>
    <rc><c>O </c><c>   1</c></rc>
    <rc><c>O </c><c>   1</c></rc>
    <rc><c>O </c><c>   1</c></rc>
    <rc><c>O </c><c>   1</c></rc>
    <rc><c>O </c><c>   1</c></rc>
    <rc><c>O </c><c>   1</c></rc>
    <rc><c>O </c><c>   1</c></rc>
    <rc><c>O </c><c>   1</c></rc>
    <rc><c>O </c><c>   1</c></rc>
    <rc><c>O </c><c>   1</c></rc>
    <rc><c>O </c><c>   1</c></rc>
    <rc><c>O </c><c>   1</c></rc>
    <rc><c>Ru</c><c>   2</c></rc>
    <rc><c>Ir</c><c>   3</c></rc>
    <rc><c>Ir</c><c>   3</c></rc>
    <rc><c>Ir</c><c>   3</c></rc>
    <rc><c>Ir</c><c>   3</c></rc>
    <rc><c>Ir</c><c>   3</c></rc>
    <rc><c>Ir</c><c>   3</c></rc>
    <rc><c>Ir</c><c>   3</c></rc>
    <rc><c>Ir</c><c>   3</c></rc>
    <rc><c>Ir</c><c>   3</c></rc>
    <rc><c>Ir</c><c>   3</c></rc>
    <rc><c>Ir</c><c>   3</c></rc>
    <rc><c>Ir</c><c>   3</c></rc>
    <rc><c>Ir</c><c>   3</c></rc>
    <rc><c>Ir</c><c>   3</c></rc>
    <rc><c>Ir</c><c>   3</c></rc>
   </set>
  </array>
  <array name="atomtypes" >
   <dimension dim="1">type</dimension>
   <field type="int">atomspertype</field>
   <field type="string">element</field>
   <field>mass</field>
   <field>valence</field>
   <field type="string">pseudopotential</field>
   <set>
    <rc><c>  32</c><c>O </c><c>     16.00000000</c><c>      6.00000000</c><c>  PAW_PBE O 08Apr2002                   </c></rc>
    <rc><c>   1</c><c>Ru</c><c>    101.07000000</c><c>      8.00000000</c><c>  PAW_PBE Ru 04Feb2005                  </c></rc>
    <rc><c>  15</c><c>Ir</c><c>    192.22000000</c><c>      9.00000000</c><c>  PAW_PBE Ir 06Sep2000                  </c></rc>
   </set>
  </array>
 </atominfo>
 <structure name="initialpos" >
  <crystal>
   <varray name="basis" >
    <v>       6.36215693       0.00000000       0.00000000 </v>
    <v>       0.00000000       6.38448299       0.00000000 </v>
    <v>       0.00000000       0.00000000      22.02159841 </v>
   </varray>
   <i name="volume">    894.49712699 </i>
   <varray name="rec_basis" >
    <v>       0.15717940       0.00000000       0.00000000 </v>
    <v>       0.00000000       0.15662975       0.00000000 </v>
    <v>       0.00000000       0.00000000       0.04540996 </v>
   </varray>
  </crystal>
  <varray name="positions" >
   <v>       0.08911000       0.35546000       0.00000000 </v>
   <v>       0.58911000       0.35546000       0.00000000 </v>
   <v>       0.33911000       0.04693000       0.05551000 </v>
   <v>       0.83911000       0.04693000       0.05551000 </v>
   <v>       0.33911000       0.66399000       0.05551000 </v>
   <v>       0.83911000       0.66399000       0.05551000 </v>
   <v>       0.08911000       0.35546000       0.11102000 </v>
   <v>       0.58911000       0.35546000       0.11102000 </v>
   <v>       0.58911000       0.85546000       0.14496000 </v>
   <v>       0.08911000       0.85546000       0.14496000 </v>
   <v>       0.33911000       0.16399000       0.20047000 </v>
   <v>       0.83911000       0.16399000       0.20047000 </v>
   <v>       0.33911000       0.54693000       0.20047000 </v>
   <v>       0.83911000       0.54693000       0.20047000 </v>
   <v>       0.08911000       0.85546000       0.25598000 </v>
   <v>       0.58911000       0.85546000       0.25598000 </v>
   <v>       0.08914000       0.35542000       0.28947000 </v>
   <v>       0.58914000       0.35542000       0.28947000 </v>
   <v>       0.33913000       0.04670000       0.34597000 </v>
   <v>       0.83913000       0.04670000       0.34597000 </v>
   <v>       0.33911000       0.66418000       0.34595000 </v>
   <v>       0.83911000       0.66418000       0.34595000 </v>
   <v>       0.08916000       0.35571000       0.39990000 </v>
   <v>       0.58916000       0.35571000       0.39990000 </v>
   <v>       0.08915000       0.85549000       0.43609000 </v>
   <v>       0.58915000       0.85549000       0.43609000 </v>
   <v>       0.33914000       0.16538000       0.49406000 </v>
   <v>       0.83914000       0.16538000       0.49406000 </v>
   <v>       0.33915000       0.54556000       0.49405000 </v>
   <v>       0.83915000       0.54556000       0.49405000 </v>
   <v>       0.08915000       0.85548000       0.54665000 </v>
   <v>       0.58915000       0.85548000       0.54665000 </v>
   <v>       0.83915000       0.85545000       0.49288000 </v>
   <v>       0.33911000       0.35546000       0.05551000 </v>
   <v>       0.83911000       0.35546000       0.05551000 </v>
   <v>       0.08911000       0.85546000       0.05551000 </v>
   <v>       0.58911000       0.85546000       0.05551000 </v>
   <v>       0.08911000       0.35546000       0.20047000 </v>
   <v>       0.58911000       0.35546000       0.20047000 </v>
   <v>       0.33911000       0.85546000       0.20047000 </v>
   <v>       0.83911000       0.85546000       0.20047000 </v>
   <v>       0.83914000       0.35543000       0.34488000 </v>
   <v>       0.33914000       0.35543000       0.34488000 </v>
   <v>       0.08911000       0.85543000       0.34634000 </v>
   <v>       0.58911000       0.85543000       0.34634000 </v>
   <v>       0.08913000       0.35545000       0.48811000 </v>
   <v>       0.58913000       0.35545000       0.48811000 </v>
   <v>       0.33915000       0.85545000       0.49288000 </v>
  </varray>
  <varray name="selective"  type="logical" >
   <v type="logical" >  F  F  F </v>
   <v type="logical" >  F  F  F </v>
   <v type="logical" >  F  F  F </v>
   <v type="logical" >  F  F  F </v>
   <v type="logical" >  F  F  F </v>
   <v type="logical" >  F  F  F </v>
   <v type="logical" >  F  F  F </v>
   <v type="logical" >  F  F  F </v>
   <v type="logical" >  F  F  F </v>
   <v type="logical" >  F  F  F </v>
   <v type="logical" >  F  F  F </v>
   <v type="logical" >  F  F  F </v>
   <v type="logical" >  F  F  F </v>
   <v type="logical" >  F  F  F </v>
   <v type="logical" >  F  F  F </v>
   <v type="logical" >  F  F  F </v>
   <v type="logical" >  T  T  T </v>
   <v type="logical" >  T  T  T </v>
   <v type="logical" >  T  T  T </v>
   <v type="logical" >  T  T  T </v>
   <v type="logical" >  T  T  T </v>
   <v type="logical" >  T  T  T </v>
   <v type="logical" >  T  T  T </v>
   <v type="logical" >  T  T  T </v>
   <v type="logical" >  T  T  T </v>
   <v type="logical" >  T  T  T </v>
   <v type="logical" >  T  T  T </v>
   <v type="logical" >  T  T  T </v>
   <v type="logical" >  T  T  T </v>
   <v type="logical" >  T  T  T </v>
   <v type="logical" >  T  T  T </v>
   <v type="logical" >  T  T  T </v>
   <v type="logical" >  T  T  T </v>
   <v type="logical" >  F  F  F </v>
   <v type="logical" >  F  F  F </v>
   <v type="logical" >  F  F  F </v>
   <v type="logical" >  F  F  F </v>
   <v type="logical" >  F  F  F </v>
   <v type="logical" >  F  F  F </v>
   <v type="logical" >  F  F  F </v>
   <v type="logical" >  F  F  F </v>
   <v type="logical" >  T  T  T </v>
   <v type="logical" >  T  T  T </v>
   <v type="logical" >  T  T  T </v>
   <v type="logical" >  T  T  T </v>
   <v type="logical" >  T  T  T </v>
   <v type="logical" >  T  T  T </v>
   <v type="logical" >  T  T  T </v>
  </varray>
  <nose>
   <v>      -3.00000000       0.00000000       0.00010000       0.00010000 </v>
  </nose>
 </structure>
 <calculation>
  <scstep>
   <time name="dav">   28.61   28.61</time>
   <time name="total">   28.92   28.93</time>
   <energy>
    <i name="alphaZ">   1010.74268284 </i>
    <i name="ewald">  63361.79029010 </i>
    <i name="hartreedc"> -86306.63180849 </i>
    <i name="XCdc">    605.51242773 </i>
    <i name="pawpsdc">  19817.25559889 </i>
    <i name="pawaedc"> -19221.22191302 </i>
    <i name="eentropy">     -0.02109336 </i>
    <i name="bandstr">   1686.86781393 </i>
    <i name="atom">  22693.01075624 </i>
    <i name="e_fr_energy">   3647.30475486 </i>
    <i name="e_wo_entrp">   3647.32584822 </i>
    <i name="e_0_energy">   3647.31530154 </i>
   </energy>
  </scstep>
  <scstep>
   <time name="dav">   29.65   29.66</time>
   <time name="total">   29.65   29.67</time>
   <energy>
    <i name="e_fr_energy">    161.83923384 </i>
    <i name="e_wo_entrp">    161.86183028 </i>
    <i name="e_0_energy">    161.85053206 </i>
   </energy>
  </scstep>
  <scstep>
   <time name="dav">   33.40   33.41</time>
   <time name="total">   33.41   33.42</time>
   <energy>
    <i name="e_fr_energy">   -362.62045961 </i>
    <i name="e_wo_entrp">   -362.58502015 </i>
    <i name="e_0_energy">   -362.60273988 </i>
   </energy>
  </scstep>
  <scstep>
   <time name="dav">   33.85   33.86</time>
   <time name="total">   33.86   33.87</time>
   <energy>
    <i name="e_fr_energy">   -386.52667119 </i>
    <i name="e_wo_entrp">   -386.48963316 </i>
    <i name="e_0_energy">   -386.50815217 </i>
   </energy>
  </scstep>
  <scstep>
   <time name="dav">   33.59   33.60</time>
   <time name="total">   34.52   34.53</time>
   <energy>
    <i name="e_fr_energy">   -387.13518359 </i>
    <i name="e_wo_entrp">   -387.09820569 </i>
    <i name="e_0_energy">   -387.11669464 </i>
   </energy>
  </scstep>
  <scstep>
   <time name="diag">    4.79    4.79</time>
   <time name="diis">   15.67   15.68</time>
   <time name="orth">    0.97    0.97</time>
   <time name="total">   22.65   22.66</time>
   <energy>
    <i name="e_fr_energy">   -296.44896540 </i>
    <i name="e_wo_entrp">   -296.42768502 </i>
    <i name="e_0_energy">   -296.43832521 </i>
   </energy>
  </scstep>
  <scstep>
   <time name="diag">    4.79    4.79</time>
   <time name="diis">   15.71   15.72</time>
   <time name="orth">    0.97    0.97</time>
   <time name="total">   22.69   22.70</time>
   <energy>
    <i name="e_fr_energy">   -436.27053874 </i>
    <i name="e_wo_entrp">   -436.23862042 </i>
    <i name="e_0_energy">   -436.25457958 </i>
   </energy>
  </scstep>
  <scstep>
   <time name="diag">    4.79    4.79</time>
   <time name="diis">   15.63   15.64</time>
   <time name="orth">    0.97    0.97</time>
   <time name="total">   22.62   22.62</time>
   <energy>
    <i name="e_fr_energy">   -320.80175046 </i>
    <i name="e_wo_entrp">   -320.77579899 </i>
    <i name="e_0_energy">   -320.78877473 </i>
   </energy>
  </scstep>
  <scstep>
   <time name="diag">    4.79    4.79</time>
   <time name="diis">   15.63   15.63</time>
   <time name="orth">    0.97    0.97</time>
   <time name="total">   22.61   22.61</time>
   <energy>
    <i name="e_fr_energy">   -348.64364396 </i>
    <i name="e_wo_entrp">   -348.61403863 </i>
    <i name="e_0_energy">   -348.62884130 </i>
   </energy>
  </scstep>
  <scstep>
   <time name="diag">    4.79    4.79</time>
   <time name="diis">   15.63   15.63</time>
   <time name="orth">    0.97    0.97</time>
   <time name="total">   22.61   22.62</time>
   <energy>
    <i name="e_fr_energy">   -288.98157188 </i>
    <i name="e_wo_entrp">   -288.94768975 </i>
    <i name="e_0_energy">   -288.96463081 </i>
   </energy>
  </scstep>
  <scstep>
   <time name="diag">    4.78    4.78</time>
   <time name="diis">   15.67   15.68</time>
   <time name="orth">    0.97    0.97</time>
   <time name="total">   22.64   22.64</time>
   <energy>
    <i name="e_fr_energy">   -298.94938991 </i>
    <i name="e_wo_entrp">   -298.91926096 </i>
    <i name="e_0_energy">   -298.93432544 </i>
   </energy>
  </scstep>
  <scstep>
   <time name="diag">    4.79    4.79</time>
   <time name="diis">   15.70   15.70</time>
   <time name="orth">    0.97    0.97</time>
   <time name="total">   22.66   22.67</time>
   <energy>
    <i name="e_fr_energy">   -292.89833429 </i>
    <i name="e_wo_entrp">   -292.86983116 </i>
    <i name="e_0_energy">   -292.88408273 </i>
   </energy>
  </scstep>
  <scstep>
   <time name="diag">    4.78    4.78</time>
   <time name="diis">   15.65   15.66</time>
   <time name="orth">    0.97    0.97</time>
   <time name="total">   22.62   22.62</time>
   <energy>
    <i name="e_fr_energy">   -293.27189721 </i>
    <i name="e_wo_entrp">   -293.24219823 </i>
    <i name="e_0_energy">   -293.25704772 </i>
   </energy>
  </scstep>
  <scstep>
   <time name="diag">    4.78    4.78</time>
   <time name="diis">   15.67   15.67</time>
   <time name="orth">    0.97    0.97</time>
   <time name="total">   22.63   22.64</time>
   <energy>
    <i name="e_fr_energy">   -299.86292178 </i>
    <i name="e_wo_entrp">   -299.82787220 </i>
    <i name="e_0_energy">   -299.84539699 </i>
   </energy>
  </scstep>
  <scstep>
   <time name="diag">    4.78    4.78</time>
   <time name="diis">   15.66   15.67</time>
   <time name="orth">    0.97    0.97</time>
   <time name="total">   22.62   22.63</time>
   <energy>
    <i name="e_fr_energy">   -306.56434896 </i>
    <i name="e_wo_entrp">   -306.53870618 </i>
    <i name="e_0_energy">   -306.55152757 </i>
   </energy>
  </scstep>
  <scstep>
   <time name="diag">    4.79    4.79</time>
   <time name="diis">   15.65   15.66</time>
   <time name="orth">    0.97    0.97</time>
   <time name="total">   22.64   22.65</time>
   <energy>
    <i name="e_fr_energy">   -315.52875012 </i>
    <i name="e_wo_entrp">   -315.49509012 </i>
    <i name="e_0_energy">   -315.51192012 </i>
   </energy>
  </scstep>
  <scstep>
   <time name="diag">    4.80    4.80</time>
   <time name="diis">   15.65   15.66</time>
   <time name="orth">    0.97    0.97</time>
   <time name="total">   22.65   22.66</time>
   <energy>
    <i name="e_fr_energy">   -324.53837650 </i>
    <i name="e_wo_entrp">   -324.49915020 </i>
    <i name="e_0_energy">   -324.51876335 </i>
   </energy>
  </scstep>
  <scstep>
   <time name="diag">    4.80    4.80</time>
   <time name="diis">   15.64   15.65</time>
   <time name="orth">    0.97    0.97</time>
   <time name="total">   22.64   22.65</time>
   <energy>
    <i name="e_fr_energy">   -327.94037331 </i>
    <i name="e_wo_entrp">   -327.90103011 </i>
    <i name="e_0_energy">   -327.92070171 </i>
   </energy>
  </scstep>
  <scstep>
   <time name="diag">    4.80    4.80</time>
   <time name="diis">   15.64   15.65</time>
   <time name="orth">    0.99    0.99</time>
   <time name="total">   22.71   22.72</time>
   <energy>
    <i name="e_fr_energy">   -328.99482503 </i>
    <i name="e_wo_entrp">   -328.95337049 </i>
    <i name="e_0_energy">   -328.97409776 </i>
   </energy>
  </scstep>
  <scstep>
   <time name="diag">    4.89    4.89</time>
   <time name="diis">   15.66   15.67</time>
   <time name="orth">    0.97    0.97</time>
   <time name="total">   22.76   22.77</time>
   <energy>
    <i name="e_fr_energy">   -329.77513729 </i>
    <i name="e_wo_entrp">   -329.73803221 </i>
    <i name="e_0_energy">   -329.75658475 </i>
   </energy>
  </scstep>
  <scstep>
   <time name="diag">    4.81    4.81</time>
   <time name="diis">   15.63   15.63</time>
   <time name="orth">    0.97    0.97</time>
   <time name="total">   22.63   22.64</time>
   <energy>
    <i name="e_fr_energy">   -330.13619433 </i>
    <i name="e_wo_entrp">   -330.09344408 </i>
    <i name="e_0_energy">   -330.11481920 </i>
   </energy>
  </scstep>
  <scstep>
   <time name="diag">    4.81    4.81</time>
   <time name="diis">   15.65   15.65</time>
   <time name="orth">    0.97    0.97</time>
   <time name="total">   22.65   22.66</time>
   <energy>
    <i name="e_fr_energy">   -330.45171137 </i>
    <i name="e_wo_entrp">   -330.40841148 </i>
    <i name="e_0_energy">   -330.43006143 </i>
   </energy>
  </scstep>
  <scstep>
   <time name="diag">    4.81    4.81</time>
   <time name="diis">   15.63   15.63</time>
   <time name="orth">    0.97    0.97</time>
   <time name="total">   22.64   22.64</time>
   <energy>
    <i name="e_fr_energy">   -330.82958282 </i>
    <i name="e_wo_entrp">   -330.78504416 </i>
    <i name="e_0_energy">   -330.80731349 </i>
   </energy>
  </scstep>
  <scstep>
   <time name="diag">    4.81    4.81</time>
   <time name="diis">   15.67   15.68</time>
   <time name="orth">    0.97    0.97</time>
   <time name="total">   22.68   22.69</time>
   <energy>
    <i name="e_fr_energy">   -330.96932748 </i>
    <i name="e_wo_entrp">   -330.92317711 </i>
    <i name="e_0_energy">   -330.94625229 </i>
   </energy>
  </scstep>
  <scstep>
   <time name="diag">    4.80    4.81</time>
   <time name="diis">   15.67   15.67</time>
   <time name="orth">    0.97    0.97</time>
   <time name="total">   22.67   22.68</time>
   <energy>
    <i name="e_fr_energy">   -331.04319002 </i>
    <i name="e_wo_entrp">   -330.99712947 </i>
    <i name="e_0_energy">   -331.02015975 </i>
   </energy>
  </scstep>
  <scstep>
   <time name="diag">    4.81    4.81</time>
   <time name="diis">   15.62   15.63</time>
   <time name="orth">    0.97    0.97</time>
   <time name="total">   22.63   22.64</time>
   <energy>
    <i name="e_fr_energy">   -331.11208961 </i>
    <i name="e_wo_entrp">   -331.07053623 </i>
    <i name="e_0_energy">   -331.09131292 </i>
   </energy>
  </scstep>
  <scstep>
   <time name="diag">    4.81    4.81</time>
   <time name="diis">   15.63   15.63</time>
   <time name="orth">    0.97    0.97</time>
   <time name="total">   22.64   22.65</time>
   <energy>
    <i name="e_fr_energy">   -331.10062009 </i>
    <i name="e_wo_entrp">   -331.06004821 </i>
    <i name="e_0_energy">   -331.08033415 </i>
   </energy>
  </scstep>
  <scstep>
   <time name="diag">    4.81    4.81</time>
   <time name="diis">   15.63   15.64</time>
   <time name="orth">    0.97    0.97</time>
   <time name="total">   22.64   22.65</time>
   <energy>
    <i name="e_fr_energy">   -331.06628178 </i>
    <i name="e_wo_entrp">   -331.02548664 </i>
    <i name="e_0_energy">   -331.04588421 </i>
   </energy>
  </scstep>
  <scstep>
   <time name="diag">    4.81    4.81</time>
   <time name="diis">   15.61   15.61</time>
   <time name="orth">    0.97    0.97</time>
   <time name="total">   22.62   22.63</time>
   <energy>
    <i name="e_fr_energy">   -331.04305376 </i>
    <i name="e_wo_entrp">   -331.00289238 </i>
    <i name="e_0_energy">   -331.02297307 </i>
   </energy>
  </scstep>
  <scstep>
   <time name="diag">    4.81    4.81</time>
   <time name="diis">   15.33   15.33</time>
   <time name="orth">    0.97    0.97</time>
   <time name="total">   22.34   22.34</time>
   <energy>
    <i name="e_fr_energy">   -331.03444184 </i>
    <i name="e_wo_entrp">   -330.99492378 </i>
    <i name="e_0_energy">   -331.01468281 </i>
   </energy>
  </scstep>
  <scstep>
   <time name="diag">    4.78    4.78</time>
   <time name="diis">   14.09   14.09</time>
   <time name="orth">    0.97    0.97</time>
   <time name="total">   21.07   21.08</time>
   <energy>
    <i name="e_fr_energy">   -331.03945656 </i>
    <i name="e_wo_entrp">   -331.00020009 </i>
    <i name="e_0_energy">   -331.01982832 </i>
   </energy>
  </scstep>
  <scstep>
   <time name="diag">    4.79    4.79</time>
   <time name="diis">   11.92   11.92</time>
   <time name="orth">    0.97    0.97</time>
   <time name="total">   18.91   18.92</time>
   <energy>
    <i name="e_fr_energy">   -331.04862529 </i>
    <i name="e_wo_entrp">   -331.00929512 </i>
    <i name="e_0_energy">   -331.02896020 </i>
   </energy>
  </scstep>
  <scstep>
   <time name="diag">    4.79    4.79</time>
   <time name="diis">   13.98   13.98</time>
   <time name="orth">    0.97    0.97</time>
   <time name="total">   20.96   20.97</time>
   <energy>
    <i name="e_fr_energy">   -331.06764266 </i>
    <i name="e_wo_entrp">   -331.02805341 </i>
    <i name="e_0_energy">   -331.04784803 </i>
   </energy>
  </scstep>
  <scstep>
   <time name="diag">    4.79    4.79</time>
   <time name="diis">   12.10   12.10</time>
   <time name="orth">    0.97    0.97</time>
   <time name="total">   19.08   19.09</time>
   <energy>
    <i name="e_fr_energy">   -331.08369378 </i>
    <i name="e_wo_entrp">   -331.04404070 </i>
    <i name="e_0_energy">   -331.06386724 </i>
   </energy>
  </scstep>
  <scstep>
   <time name="diag">    4.79    4.79</time>
   <time name="diis">   11.34   11.34</time>
   <time name="orth">    0.97    0.97</time>
   <time name="total">   18.32   18.33</time>
   <energy>
    <i name="e_fr_energy">   -331.09732556 </i>
    <i name="e_wo_entrp">   -331.05764994 </i>
    <i name="e_0_energy">   -331.07748775 </i>
   </energy>
  </scstep>
  <scstep>
   <time name="diag">    4.81    4.81</time>
   <time name="diis">   11.10   11.10</time>
   <time name="orth">    0.97    0.97</time>
   <time name="total">   18.10   18.11</time>
   <energy>
    <i name="e_fr_energy">   -331.10917594 </i>
    <i name="e_wo_entrp">   -331.06947843 </i>
    <i name="e_0_energy">   -331.08932719 </i>
   </energy>
  </scstep>
  <scstep>
   <time name="diag">    4.82    4.82</time>
   <time name="diis">   11.86   11.87</time>
   <time name="orth">    0.97    0.97</time>
   <time name="total">   18.88   18.88</time>
   <energy>
    <i name="e_fr_energy">   -331.12392257 </i>
    <i name="e_wo_entrp">   -331.08408864 </i>
    <i name="e_0_energy">   -331.10400561 </i>
   </energy>
  </scstep>
  <scstep>
   <time name="diag">    4.80    4.80</time>
   <time name="diis">   10.66   10.66</time>
   <time name="orth">    0.97    0.97</time>
   <time name="total">   17.66   17.66</time>
   <energy>
    <i name="e_fr_energy">   -331.12904710 </i>
    <i name="e_wo_entrp">   -331.08912190 </i>
    <i name="e_0_energy">   -331.10908450 </i>
   </energy>
  </scstep>
  <scstep>
   <time name="diag">    4.80    4.80</time>
   <time name="diis">   10.00   10.00</time>
   <time name="orth">    0.97    0.97</time>
   <time name="total">   16.99   17.00</time>
   <energy>
    <i name="e_fr_energy">   -331.13112914 </i>
    <i name="e_wo_entrp">   -331.09116020 </i>
    <i name="e_0_energy">   -331.11114467 </i>
   </energy>
  </scstep>
  <scstep>
   <time name="diag">    4.80    4.80</time>
   <time name="diis">    9.65    9.65</time>
   <time name="orth">    0.97    0.97</time>
   <time name="total">   16.64   16.65</time>
   <energy>
    <i name="e_fr_energy">   -331.13275600 </i>
    <i name="e_wo_entrp">   -331.09274014 </i>
    <i name="e_0_energy">   -331.11274807 </i>
   </energy>
  </scstep>
  <scstep>
   <time name="diag">    4.78    4.78</time>
   <time name="diis">    9.67    9.67</time>
   <time name="orth">    0.97    0.97</time>
   <time name="total">   16.64   16.65</time>
   <energy>
    <i name="e_fr_energy">   -331.13396853 </i>
    <i name="e_wo_entrp">   -331.09388735 </i>
    <i name="e_0_energy">   -331.11392794 </i>
   </energy>
  </scstep>
  <scstep>
   <time name="diag">    4.78    4.78</time>
   <time name="diis">    9.00    9.00</time>
   <time name="orth">    0.97    0.97</time>
   <time name="total">   15.98   15.98</time>
   <energy>
    <i name="e_fr_energy">   -331.13442420 </i>
    <i name="e_wo_entrp">   -331.09429321 </i>
    <i name="e_0_energy">   -331.11435871 </i>
   </energy>
  </scstep>
  <scstep>
   <time name="diag">    4.78    4.78</time>
   <time name="diis">    8.76    8.76</time>
   <time name="orth">    0.97    0.97</time>
   <time name="total">   15.73   15.74</time>
   <energy>
    <i name="e_fr_energy">   -331.13464569 </i>
    <i name="e_wo_entrp">   -331.09447636 </i>
    <i name="e_0_energy">   -331.11456103 </i>
   </energy>
  </scstep>
  <scstep>
   <time name="diag">    4.78    4.78</time>
   <time name="diis">    8.82    8.82</time>
   <time name="orth">    0.97    0.97</time>
   <time name="total">   15.79   15.79</time>
   <energy>
    <i name="e_fr_energy">   -331.13484054 </i>
    <i name="e_wo_entrp">   -331.09464598 </i>
    <i name="e_0_energy">   -331.11474326 </i>
   </energy>
  </scstep>
  <scstep>
   <time name="diag">    4.78    4.78</time>
   <time name="diis">    8.71    8.71</time>
   <time name="orth">    0.97    0.97</time>
   <time name="total">   14.76   14.77</time>
   <energy>
    <i name="alphaZ">   1010.74268284 </i>
    <i name="ewald">  63361.79029010 </i>
    <i name="hartreedc"> -86427.34497108 </i>
    <i name="XCdc">    621.93600395 </i>
    <i name="pawpsdc">  30629.50840461 </i>
    <i name="pawaedc"> -30093.11420093 </i>
    <i name="eentropy">     -0.04020834 </i>
    <i name="bandstr">  -2127.62355629 </i>
    <i name="atom">  22693.01075624 </i>
    <i name="e_fr_energy">   -331.13479890 </i>
    <i name="e_wo_entrp">   -331.09459056 </i>
    <i name="e_0_energy">   -331.11469473 </i>
   </energy>
  </scstep>
  <structure>
   <crystal>
    <varray name="basis" >
     <v>       6.36215693       0.00000000       0.00000000 </v>
     <v>       0.00000000       6.38448299       0.00000000 </v>
     <v>       0.00000000       0.00000000      22.02159841 </v>
    </varray>
    <i name="volume">    894.49712699 </i>
    <varray name="rec_basis" >
     <v>       0.15717940       0.00000000       0.00000000 </v>
     <v>       0.00000000       0.15662975       0.00000000 </v>
     <v>       0.00000000       0.00000000       0.04540996 </v>
    </varray>
   </crystal>
   <varray name="positions" >
    <v>       0.08911000       0.35546000       0.00000000 </v>
    <v>       0.58911000       0.35546000       0.00000000 </v>
    <v>       0.33911000       0.04693000       0.05551000 </v>
    <v>       0.83911000       0.04693000       0.05551000 </v>
    <v>       0.33911000       0.66399000       0.05551000 </v>
    <v>       0.83911000       0.66399000       0.05551000 </v>
    <v>       0.08911000       0.35546000       0.11102000 </v>
    <v>       0.58911000       0.35546000       0.11102000 </v>
    <v>       0.58911000       0.85546000       0.14496000 </v>
    <v>       0.08911000       0.85546000       0.14496000 </v>
    <v>       0.33911000       0.16399000       0.20047000 </v>
    <v>       0.83911000       0.16399000       0.20047000 </v>
    <v>       0.33911000       0.54693000       0.20047000 </v>
    <v>       0.83911000       0.54693000       0.20047000 </v>
    <v>       0.08911000       0.85546000       0.25598000 </v>
    <v>       0.58911000       0.85546000       0.25598000 </v>
    <v>       0.08914000       0.35542000       0.28947000 </v>
    <v>       0.58914000       0.35542000       0.28947000 </v>
    <v>       0.33913000       0.04670000       0.34597000 </v>
    <v>       0.83913000       0.04670000       0.34597000 </v>
    <v>       0.33911000       0.66418000       0.34595000 </v>
    <v>       0.83911000       0.66418000       0.34595000 </v>
    <v>       0.08916000       0.35571000       0.39990000 </v>
    <v>       0.58916000       0.35571000       0.39990000 </v>
    <v>       0.08915000       0.85549000       0.43609000 </v>
    <v>       0.58915000       0.85549000       0.43609000 </v>
    <v>       0.33914000       0.16538000       0.49406000 </v>
    <v>       0.83914000       0.16538000       0.49406000 </v>
    <v>       0.33915000       0.54556000       0.49405000 </v>
    <v>       0.83915000       0.54556000       0.49405000 </v>
    <v>       0.08915000       0.85548000       0.54665000 </v>
    <v>       0.58915000       0.85548000       0.54665000 </v>
    <v>       0.83915000       0.85545000       0.49288000 </v>
    <v>       0.33911000       0.35546000       0.05551000 </v>
    <v>       0.83911000       0.35546000       0.05551000 </v>
    <v>       0.08911000       0.85546000       0.05551000 </v>
    <v>       0.58911000       0.85546000       0.05551000 </v>
    <v>       0.08911000       0.35546000       0.20047000 </v>
    <v>       0.58911000       0.35546000       0.20047000 </v>
    <v>       0.33911000       0.85546000       0.20047000 </v>
    <v>       0.83911000       0.85546000       0.20047000 </v>
    <v>       0.83914000       0.35543000       0.34488000 </v>
    <v>       0.33914000       0.35543000       0.34488000 </v>
    <v>       0.08911000       0.85543000       0.34634000 </v>
    <v>       0.58911000       0.85543000       0.34634000 </v>
    <v>       0.08913000       0.35545000       0.48811000 </v>
    <v>       0.58913000       0.35545000       0.48811000 </v>
    <v>       0.33915000       0.85545000       0.49288000 </v>
   </varray>
  </structure>
  <varray name="forces" >
   <v>      -0.00195532      -0.00090340       0.61936619 </v>
   <v>       0.00049899      -0.00089847       0.61914921 </v>
   <v>       0.00371514       0.03374991      -0.63499124 </v>
   <v>       0.00363573       0.02761969      -0.63891729 </v>
   <v>      -0.00094065      -0.03197391      -0.63600438 </v>
   <v>      -0.00101231      -0.02582025      -0.63991378 </v>
   <v>      -0.00339722      -0.00037113       0.24168583 </v>
   <v>       0.00119877      -0.00036829       0.24127745 </v>
   <v>      -0.01336038       0.00132432      -0.15161394 </v>
   <v>       0.01010991       0.00132343      -0.15152139 </v>
   <v>       0.00048991       0.02673132      -0.03746434 </v>
   <v>       0.00070309       0.02970927      -0.04224948 </v>
   <v>       0.00271297      -0.02653900      -0.03817217 </v>
   <v>       0.00292589      -0.02952871      -0.04295262 </v>
   <v>      -0.03999521       0.00113045       0.46040751 </v>
   <v>       0.03760132       0.00113124       0.46022527 </v>
   <v>      -0.00775742      -0.00145139       0.00538754 </v>
   <v>       0.00836562      -0.00145454       0.00549587 </v>
   <v>       0.00030414      -0.00445528       0.00532041 </v>
   <v>       0.00053090       0.00008016       0.03392043 </v>
   <v>       0.00159029       0.00539685       0.00384619 </v>
   <v>       0.00182102       0.00098749       0.03238728 </v>
   <v>      -0.03103582       0.00253255       0.03166584 </v>
   <v>       0.03049760       0.00251760       0.03204332 </v>
   <v>      -0.34537866       0.00034814      -0.21079228 </v>
   <v>       0.34816252       0.00037864      -0.21081645 </v>
   <v>      -0.00028622       0.00917141       0.00610168 </v>
   <v>      -0.00057371       0.05723450      -0.07720951 </v>
   <v>       0.00007326      -0.01207389       0.00767729 </v>
   <v>      -0.00013383      -0.05880387      -0.07558783 </v>
   <v>      -0.57569018       0.00053900      -0.77754983 </v>
   <v>       0.57566832       0.00052537      -0.77739612 </v>
   <v>      -0.00261246      -0.00072737       1.61660963 </v>
   <v>      -0.00120979      -0.00129722      -0.85639920 </v>
   <v>      -0.00223208      -0.00125608      -0.84596997 </v>
   <v>      -0.01033964      -0.00039916       1.50065444 </v>
   <v>       0.00507036      -0.00039497       1.50084073 </v>
   <v>       0.01049486      -0.00095323      -0.36748423 </v>
   <v>      -0.00920947      -0.00094700      -0.36754407 </v>
   <v>      -0.00064283      -0.00161861      -0.23917811 </v>
   <v>      -0.00055829      -0.00154054      -0.20904555 </v>
   <v>       0.00047483      -0.00020620       0.01524049 </v>
   <v>       0.00056084      -0.00025755       0.03051989 </v>
   <v>       0.10563456       0.00168894       0.11338701 </v>
   <v>      -0.10424348       0.00166590       0.11346263 </v>
   <v>      -0.29089569      -0.00073868       0.07717180 </v>
   <v>       0.29146953      -0.00070449       0.07649597 </v>
   <v>      -0.00084966      -0.00010299       0.17843389 </v>
  </varray>
  <varray name="stress" >
   <v>     -19.80556238       0.02926029      -0.02190697 </v>
   <v>       0.02926026      -9.18732226      -0.01200453 </v>
   <v>      -0.02190700      -0.01200471      -6.03797647 </v>
  </varray>
  <energy>
   <i name="e_fr_energy">   -340.88504078 </i>
   <i name="e_wo_entrp">   -340.86493661 </i>
   <i name="e_0_energy">     -0.04020834 </i>
  </energy>
  <time name="totalsc"> 1023.01 1023.39</time>
 </calculation>
 <calculation>
  <scstep>
   <time name="dav">   29.63   29.64</time>
   <time name="total">   30.86   30.86</time>
   <energy>
    <i name="alphaZ">   1010.74268284 </i>
    <i name="ewald">  63355.49598867 </i>
    <i name="hartreedc"> -86420.58269858 </i>
    <i name="XCdc">    621.95288719 </i>
    <i name="pawpsdc">  30629.37812209 </i>
    <i name="pawaedc"> -30092.98372378 </i>
    <i name="eentropy">     -0.03733348 </i>
    <i name="bandstr">  -2128.15438662 </i>
    <i name="atom">  22693.01075624 </i>
    <i name="e_fr_energy">   -331.17770544 </i>
    <i name="e_wo_entrp">   -331.14037196 </i>
    <i name="e_0_energy">   -331.15903870 </i>
   </energy>
  </scstep>
  <scstep>
   <time name="diag">    4.83    4.83</time>
   <time name="diis">   15.57   15.58</time>
   <time name="orth">    0.97    0.97</time>
   <time name="total">   22.59   22.60</time>
   <energy>
    <i name="e_fr_energy">   -331.23860115 </i>
    <i name="e_wo_entrp">   -331.20026386 </i>
    <i name="e_0_energy">   -331.21943250 </i>
   </energy>
  </scstep>
  <scstep>
   <time name="diag">    4.83    4.84</time>
   <time name="diis">   15.23   15.24</time>
   <time name="orth">    0.97    0.97</time>
   <time name="total">   22.26   22.27</time>
   <energy>
    <i name="e_fr_energy">   -331.18292145 </i>
    <i name="e_wo_entrp">   -331.14448682 </i>
    <i name="e_0_energy">   -331.16370414 </i>
   </energy>
  </scstep>
  <scstep>
   <time name="diag">    4.83    4.83</time>
   <time name="diis">   14.69   14.69</time>
   <time name="orth">    0.97    0.97</time>
   <time name="total">   21.71   21.72</time>
   <energy>
    <i name="e_fr_energy">   -331.18070010 </i>
    <i name="e_wo_entrp">   -331.14249626 </i>
    <i name="e_0_energy">   -331.16159818 </i>
   </energy>
  </scstep>
  <scstep>
   <time name="diag">    4.84    4.84</time>
   <time name="diis">   13.51   13.52</time>
   <time name="orth">    0.97    0.97</time>
   <time name="total">   20.55   20.56</time>
   <energy>
    <i name="e_fr_energy">   -331.17882508 </i>
    <i name="e_wo_entrp">   -331.14116499 </i>
    <i name="e_0_energy">   -331.15999504 </i>
   </energy>
  </scstep>
  <scstep>
   <time name="diag">    4.81    4.82</time>
   <time name="diis">   14.10   14.10</time>
   <time name="orth">    0.97    0.97</time>
   <time name="total">   21.12   21.13</time>
   <energy>
    <i name="e_fr_energy">   -331.17856671 </i>
    <i name="e_wo_entrp">   -331.14001657 </i>
    <i name="e_0_energy">   -331.15929164 </i>
   </energy>
  </scstep>
  <scstep>
   <time name="diag">    4.82    4.82</time>
   <time name="diis">   12.91   12.91</time>
   <time name="orth">    0.97    0.97</time>
   <time name="total">   19.93   19.94</time>
   <energy>
    <i name="e_fr_energy">   -331.17659845 </i>
    <i name="e_wo_entrp">   -331.13859248 </i>
    <i name="e_0_energy">   -331.15759547 </i>
   </energy>
  </scstep>
  <scstep>
   <time name="diag">    4.82    4.82</time>
   <time name="diis">   10.91   10.91</time>
   <time name="orth">    0.97    0.97</time>
   <time name="total">   17.93   17.94</time>
   <energy>
    <i name="e_fr_energy">   -331.17619004 </i>
    <i name="e_wo_entrp">   -331.13793918 </i>
    <i name="e_0_energy">   -331.15706461 </i>
   </energy>
  </scstep>
  <scstep>
   <time name="diag">    4.82    4.82</time>
   <time name="diis">    9.52    9.52</time>
   <time name="orth">    0.98    0.98</time>
   <time name="total">   16.55   16.55</time>
   <energy>
    <i name="e_fr_energy">   -331.17633889 </i>
    <i name="e_wo_entrp">   -331.13821167 </i>
    <i name="e_0_energy">   -331.15727528 </i>
   </energy>
  </scstep>
  <scstep>
   <time name="diag">    4.82    4.82</time>
   <time name="diis">    9.20    9.21</time>
   <time name="orth">    0.97    0.97</time>
   <time name="total">   16.22   16.22</time>
   <energy>
    <i name="e_fr_energy">   -331.17671028 </i>
    <i name="e_wo_entrp">   -331.13872213 </i>
    <i name="e_0_energy">   -331.15771620 </i>
   </energy>
  </scstep>
  <scstep>
   <time name="diag">    4.82    4.82</time>
   <time name="diis">    8.91    8.91</time>
   <time name="orth">    0.97    0.97</time>
   <time name="total">   15.92   15.93</time>
   <energy>
    <i name="e_fr_energy">   -331.17715263 </i>
    <i name="e_wo_entrp">   -331.13918916 </i>
    <i name="e_0_energy">   -331.15817090 </i>
   </energy>
  </scstep>
  <scstep>
   <time name="diag">    4.83    4.83</time>
   <time name="diis">    8.85    8.85</time>
   <time name="orth">    0.97    0.97</time>
   <time name="total">   15.87   15.87</time>
   <energy>
    <i name="e_fr_energy">   -331.17766719 </i>
    <i name="e_wo_entrp">   -331.13972774 </i>
    <i name="e_0_energy">   -331.15869746 </i>
   </energy>
  </scstep>
  <scstep>
   <time name="diag">    4.83    4.83</time>
   <time name="diis">    8.46    8.46</time>
   <time name="orth">    0.97    0.97</time>
   <time name="total">   15.47   15.48</time>
   <energy>
    <i name="e_fr_energy">   -331.17813305 </i>
    <i name="e_wo_entrp">   -331.14019662 </i>
    <i name="e_0_energy">   -331.15916484 </i>
   </energy>
  </scstep>
  <scstep>
   <time name="diag">    4.82    4.82</time>
   <time name="diis">    8.10    8.10</time>
   <time name="orth">    0.97    0.97</time>
   <time name="total">   15.11   15.11</time>
   <energy>
    <i name="e_fr_energy">   -331.17846477 </i>
    <i name="e_wo_entrp">   -331.14053599 </i>
    <i name="e_0_energy">   -331.15950038 </i>
   </energy>
  </scstep>
  <scstep>
   <time name="diag">    4.83    4.83</time>
   <time name="diis">    8.07    8.08</time>
   <time name="orth">    0.97    0.97</time>
   <time name="total">   15.09   15.10</time>
   <energy>
    <i name="e_fr_energy">   -331.17879557 </i>
    <i name="e_wo_entrp">   -331.14086591 </i>
    <i name="e_0_energy">   -331.15983074 </i>
   </energy>
  </scstep>
  <scstep>
   <time name="diag">    4.82    4.82</time>
   <time name="diis">    7.41    7.41</time>
   <time name="orth">    0.97    0.97</time>
   <time name="total">   14.42   14.42</time>
   <energy>
    <i name="e_fr_energy">   -331.17893017 </i>
    <i name="e_wo_entrp">   -331.14100195 </i>
    <i name="e_0_energy">   -331.15996606 </i>
   </energy>
  </scstep>
  <scstep>
   <time name="diag">    4.82    4.82</time>
   <time name="diis">    7.27    7.27</time>
   <time name="orth">    0.97    0.97</time>
   <time name="total">   14.27   14.28</time>
   <energy>
    <i name="e_fr_energy">   -331.17906075 </i>
    <i name="e_wo_entrp">   -331.14113137 </i>
    <i name="e_0_energy">   -331.16009606 </i>
   </energy>
  </scstep>
  <scstep>
   <time name="diag">    4.82    4.82</time>
   <time name="diis">    7.72    7.73</time>
   <time name="orth">    0.97    0.97</time>
   <time name="total">   14.73   14.74</time>
   <energy>
    <i name="e_fr_energy">   -331.17923783 </i>
    <i name="e_wo_entrp">   -331.14130492 </i>
    <i name="e_0_energy">   -331.16027138 </i>
   </energy>
  </scstep>
  <scstep>
   <time name="diag">    4.81    4.81</time>
   <time name="diis">    7.44    7.44</time>
   <time name="orth">    0.97    0.97</time>
   <time name="total">   13.52   13.52</time>
   <energy>
    <i name="alphaZ">   1010.74268284 </i>
    <i name="ewald">  63355.49598867 </i>
    <i name="hartreedc"> -86424.30689805 </i>
    <i name="XCdc">    621.98792574 </i>
    <i name="pawpsdc">  30636.79920684 </i>
    <i name="pawaedc"> -30100.44601676 </i>
    <i name="eentropy">     -0.03793490 </i>
    <i name="bandstr">  -2124.42502204 </i>
    <i name="atom">  22693.01075624 </i>
    <i name="e_fr_energy">   -331.17931142 </i>
    <i name="e_wo_entrp">   -331.14137652 </i>
    <i name="e_0_energy">   -331.16034397 </i>
   </energy>
  </scstep>
  <structure>
   <crystal>
    <varray name="basis" >
     <v>       6.36215693       0.00000000       0.00000000 </v>
     <v>       0.00000000       6.38448299       0.00000000 </v>
     <v>       0.00000000       0.00000000      22.02159841 </v>
    </varray>
    <i name="volume">    894.49712699 </i>
    <varray name="rec_basis" >
     <v>       0.15717940       0.00000000       0.00000000 </v>
     <v>       0.00000000       0.15662975       0.00000000 </v>
     <v>       0.00000000       0.00000000       0.04540996 </v>
    </varray>
   </crystal>
   <varray name="positions" >
    <v>       0.08911000       0.35546000       0.00000000 </v>
    <v>       0.58911000       0.35546000       0.00000000 </v>
    <v>       0.33911000       0.04693000       0.05551000 </v>
    <v>       0.83911000       0.04693000       0.05551000 </v>
    <v>       0.33911000       0.66399000       0.05551000 </v>
    <v>       0.83911000       0.66399000       0.05551000 </v>
    <v>       0.08911000       0.35546000       0.11102000 </v>
    <v>       0.58911000       0.35546000       0.11102000 </v>
    <v>       0.58911000       0.85546000       0.14496000 </v>
    <v>       0.08911000       0.85546000       0.14496000 </v>
    <v>       0.33911000       0.16399000       0.20047000 </v>
    <v>       0.83911000       0.16399000       0.20047000 </v>
    <v>       0.33911000       0.54693000       0.20047000 </v>
    <v>       0.83911000       0.54693000       0.20047000 </v>
    <v>       0.08911000       0.85546000       0.25598000 </v>
    <v>       0.58911000       0.85546000       0.25598000 </v>
    <v>       0.08912824       0.35541781       0.28947236 </v>
    <v>       0.58915269       0.35541780       0.28947241 </v>
    <v>       0.33913046       0.04669327       0.34597233 </v>
    <v>       0.83913081       0.04670012       0.34598486 </v>
    <v>       0.33911241       0.66418816       0.34595169 </v>
    <v>       0.83911276       0.66418149       0.34596419 </v>
    <v>       0.08911293       0.35571383       0.39991387 </v>
    <v>       0.58920625       0.35571380       0.39991404 </v>
    <v>       0.08862622       0.85549053       0.43599764 </v>
    <v>       0.58967801       0.85549057       0.43599763 </v>
    <v>       0.33913957       0.16539386       0.49406267 </v>
    <v>       0.83913913       0.16546650       0.49402617 </v>
    <v>       0.33915011       0.54554175       0.49405336 </v>
    <v>       0.83914980       0.54547113       0.49401688 </v>
    <v>       0.08827694       0.85548081       0.54630932 </v>
    <v>       0.59002303       0.85548079       0.54630939 </v>
    <v>       0.83914604       0.85544890       0.49358830 </v>
    <v>       0.33911000       0.35546000       0.05551000 </v>
    <v>       0.83911000       0.35546000       0.05551000 </v>
    <v>       0.08911000       0.85546000       0.05551000 </v>
    <v>       0.58911000       0.85546000       0.05551000 </v>
    <v>       0.08911000       0.35546000       0.20047000 </v>
    <v>       0.58911000       0.35546000       0.20047000 </v>
    <v>       0.33911000       0.85546000       0.20047000 </v>
    <v>       0.83911000       0.85546000       0.20047000 </v>
    <v>       0.83914072       0.35542969       0.34488668 </v>
    <v>       0.33914085       0.35542961       0.34489337 </v>
    <v>       0.08927020       0.85543255       0.34638968 </v>
    <v>       0.58895191       0.85543252       0.34638971 </v>
    <v>       0.08868884       0.35544888       0.48814381 </v>
    <v>       0.58957203       0.35544894       0.48814352 </v>
    <v>       0.33914871       0.85544984       0.49295818 </v>
   </varray>
  </structure>
  <varray name="forces" >
   <v>      -0.00213700      -0.00086557       0.61720020 </v>
   <v>       0.00085196      -0.00086946       0.61720854 </v>
   <v>       0.00375444       0.03370548      -0.63729644 </v>
   <v>       0.00377596       0.02907757      -0.63993365 </v>
   <v>      -0.00090053      -0.03184988      -0.63830099 </v>
   <v>      -0.00087646      -0.02719513      -0.64092651 </v>
   <v>      -0.00304339      -0.00032548       0.23955808 </v>
   <v>       0.00102385      -0.00032244       0.23955825 </v>
   <v>      -0.01172705       0.00137232      -0.14769061 </v>
   <v>       0.00865489       0.00137136      -0.14771375 </v>
   <v>       0.00068722       0.02659030      -0.03750330 </v>
   <v>       0.00067637       0.02948168      -0.04332986 </v>
   <v>       0.00291324      -0.02633354      -0.03819727 </v>
   <v>       0.00290338      -0.02923596      -0.04401472 </v>
   <v>      -0.03083447       0.00120698       0.47644534 </v>
   <v>       0.02864387       0.00120903       0.47647069 </v>
   <v>      -0.00638680      -0.00137324       0.00781932 </v>
   <v>       0.00724738      -0.00138150       0.00779683 </v>
   <v>       0.00021372       0.00396545       0.00916568 </v>
   <v>       0.00018689      -0.00824179       0.03188892 </v>
   <v>       0.00156999      -0.00277953       0.00763365 </v>
   <v>       0.00154026       0.00957083       0.02993180 </v>
   <v>      -0.02630415       0.00259032       0.02735862 </v>
   <v>       0.02628626       0.00264732       0.02713510 </v>
   <v>      -0.29354901       0.00038760      -0.07272843 </v>
   <v>       0.29526980      -0.00054175      -0.07228067 </v>
   <v>      -0.00028716       0.02446500       0.02036468 </v>
   <v>      -0.00035402       0.04628611      -0.01703134 </v>
   <v>       0.00001960      -0.02677114       0.02197869 </v>
   <v>       0.00053387      -0.04738925      -0.01463515 </v>
   <v>      -0.51855139      -0.00117042      -0.57491478 </v>
   <v>       0.51779783      -0.00036748      -0.57554848 </v>
   <v>      -0.00484645       0.00166673       1.18196983 </v>
   <v>      -0.00162626      -0.00124841      -0.85169520 </v>
   <v>      -0.00164113      -0.00120972      -0.84453031 </v>
   <v>      -0.00955182      -0.00036111       1.49952611 </v>
   <v>       0.00445804      -0.00035826       1.49950821 </v>
   <v>       0.01012690      -0.00091622      -0.36528674 </v>
   <v>      -0.00866936      -0.00090862      -0.36525407 </v>
   <v>      -0.00051398      -0.00158507      -0.23864433 </v>
   <v>      -0.00051728      -0.00150794      -0.20448128 </v>
   <v>       0.00051506       0.00002174       0.01115557 </v>
   <v>       0.00054789      -0.00002695       0.03272500 </v>
   <v>       0.02990405       0.00080289       0.06259368 </v>
   <v>      -0.02822583       0.00095170       0.06242722 </v>
   <v>      -0.12700009      -0.00107914       0.03815588 </v>
   <v>       0.12784298      -0.00088289       0.03878514 </v>
   <v>      -0.00040208      -0.00027251      -0.07242315 </v>
  </varray>
  <varray name="stress" >
   <v>     -19.57662937       0.02913813      -0.01833197 </v>
   <v>       0.02913804      -9.04570028      -0.00940825 </v>
   <v>      -0.01833177      -0.00940839      -5.48421768 </v>
  </varray>
  <energy>
   <i name="e_fr_energy">   -340.92794363 </i>
   <i name="e_wo_entrp">   -340.90897618 </i>
   <i name="e_0_energy">     -0.03793490 </i>
  </energy>
  <time name="totalsc">  375.18  375.35</time>
 </calculation>
 <calculation>
  <scstep>
   <time name="dav">   29.16   29.17</time>
   <time name="total">   30.38   30.39</time>
   <energy>
    <i name="alphaZ">   1010.74268284 </i>
    <i name="ewald">  63338.45553123 </i>
    <i name="hartreedc"> -86405.94259758 </i>
    <i name="XCdc">    622.03951921 </i>
    <i name="pawpsdc">  30636.80103085 </i>
    <i name="pawaedc"> -30100.44782075 </i>
    <i name="eentropy">     -0.03690081 </i>
    <i name="bandstr">  -2125.83147130 </i>
    <i name="atom">  22693.01075624 </i>
    <i name="e_fr_energy">   -331.20927007 </i>
    <i name="e_wo_entrp">   -331.17236926 </i>
    <i name="e_0_energy">   -331.19081966 </i>
   </energy>
  </scstep>
  <scstep>
   <time name="diag">    4.83    4.83</time>
   <time name="diis">   15.78   15.78</time>
   <time name="orth">    0.97    0.98</time>
   <time name="total">   22.80   22.81</time>
   <energy>
    <i name="e_fr_energy">   -331.44591873 </i>
    <i name="e_wo_entrp">   -331.41156115 </i>
    <i name="e_0_energy">   -331.42873994 </i>
   </energy>
  </scstep>
  <scstep>
   <time name="diag">    4.82    4.82</time>
   <time name="diis">   15.79   15.79</time>
   <time name="orth">    0.97    0.98</time>
   <time name="total">   22.80   22.81</time>
   <energy>
    <i name="e_fr_energy">   -331.24642412 </i>
    <i name="e_wo_entrp">   -331.21013002 </i>
    <i name="e_0_energy">   -331.22827707 </i>
   </energy>
  </scstep>
  <scstep>
   <time name="diag">    4.83    4.83</time>
   <time name="diis">   15.76   15.77</time>
   <time name="orth">    0.97    0.98</time>
   <time name="total">   22.78   22.79</time>
   <energy>
    <i name="e_fr_energy">   -331.26098499 </i>
    <i name="e_wo_entrp">   -331.22689424 </i>
    <i name="e_0_energy">   -331.24393961 </i>
   </energy>
  </scstep>
  <scstep>
   <time name="diag">    4.81    4.82</time>
   <time name="diis">   15.75   15.75</time>
   <time name="orth">    0.97    0.98</time>
   <time name="total">   22.76   22.77</time>
   <energy>
    <i name="e_fr_energy">   -331.23163173 </i>
    <i name="e_wo_entrp">   -331.19672446 </i>
    <i name="e_0_energy">   -331.21417809 </i>
   </energy>
  </scstep>
  <scstep>
   <time name="diag">    4.82    4.82</time>
   <time name="diis">   15.75   15.76</time>
   <time name="orth">    0.98    0.98</time>
   <time name="total">   22.77   22.78</time>
   <energy>
    <i name="e_fr_energy">   -331.22854668 </i>
    <i name="e_wo_entrp">   -331.19174479 </i>
    <i name="e_0_energy">   -331.21014574 </i>
   </energy>
  </scstep>
  <scstep>
   <time name="diag">    4.82    4.82</time>
   <time name="diis">   15.44   15.44</time>
   <time name="orth">    0.98    0.98</time>
   <time name="total">   22.46   22.47</time>
   <energy>
    <i name="e_fr_energy">   -331.21554735 </i>
    <i name="e_wo_entrp">   -331.18043790 </i>
    <i name="e_0_energy">   -331.19799263 </i>
   </energy>
  </scstep>
  <scstep>
   <time name="diag">    4.83    4.83</time>
   <time name="diis">   15.21   15.21</time>
   <time name="orth">    0.98    0.98</time>
   <time name="total">   22.23   22.24</time>
   <energy>
    <i name="e_fr_energy">   -331.21151947 </i>
    <i name="e_wo_entrp">   -331.17582075 </i>
    <i name="e_0_energy">   -331.19367011 </i>
   </energy>
  </scstep>
  <scstep>
   <time name="diag">    4.83    4.83</time>
   <time name="diis">   14.06   14.07</time>
   <time name="orth">    0.97    0.98</time>
   <time name="total">   21.08   21.09</time>
   <energy>
    <i name="e_fr_energy">   -331.21046898 </i>
    <i name="e_wo_entrp">   -331.17481087 </i>
    <i name="e_0_energy">   -331.19263992 </i>
   </energy>
  </scstep>
  <scstep>
   <time name="diag">    4.83    4.83</time>
   <time name="diis">   11.95   11.95</time>
   <time name="orth">    0.98    0.98</time>
   <time name="total">   18.98   18.99</time>
   <energy>
    <i name="e_fr_energy">   -331.21306359 </i>
    <i name="e_wo_entrp">   -331.17744631 </i>
    <i name="e_0_energy">   -331.19525495 </i>
   </energy>
  </scstep>
  <scstep>
   <time name="diag">    4.82    4.82</time>
   <time name="diis">   11.03   11.03</time>
   <time name="orth">    0.97    0.98</time>
   <time name="total">   18.05   18.05</time>
   <energy>
    <i name="e_fr_energy">   -331.21618680 </i>
    <i name="e_wo_entrp">   -331.18045353 </i>
    <i name="e_0_energy">   -331.19832016 </i>
   </energy>
  </scstep>
  <scstep>
   <time name="diag">    4.83    4.83</time>
   <time name="diis">   10.23   10.23</time>
   <time name="orth">    0.97    0.98</time>
   <time name="total">   17.25   17.26</time>
   <energy>
    <i name="e_fr_energy">   -331.21854237 </i>
    <i name="e_wo_entrp">   -331.18279883 </i>
    <i name="e_0_energy">   -331.20067060 </i>
   </energy>
  </scstep>
  <scstep>
   <time name="diag">    4.83    4.83</time>
   <time name="diis">   11.06   11.07</time>
   <time name="orth">    0.97    0.98</time>
   <time name="total">   18.09   18.10</time>
   <energy>
    <i name="e_fr_energy">   -331.22181019 </i>
    <i name="e_wo_entrp">   -331.18598319 </i>
    <i name="e_0_energy">   -331.20389669 </i>
   </energy>
  </scstep>
  <scstep>
   <time name="diag">    4.83    4.83</time>
   <time name="diis">   10.25   10.25</time>
   <time name="orth">    0.97    0.98</time>
   <time name="total">   17.27   17.28</time>
   <energy>
    <i name="e_fr_energy">   -331.22283587 </i>
    <i name="e_wo_entrp">   -331.18693744 </i>
    <i name="e_0_energy">   -331.20488666 </i>
   </energy>
  </scstep>
  <scstep>
   <time name="diag">    4.83    4.83</time>
   <time name="diis">   10.19   10.19</time>
   <time name="orth">    0.97    0.98</time>
   <time name="total">   16.30   16.30</time>
   <energy>
    <i name="alphaZ">   1010.74268284 </i>
    <i name="ewald">  63338.45553123 </i>
    <i name="hartreedc"> -86414.55417523 </i>
    <i name="XCdc">    622.11899385 </i>
    <i name="pawpsdc">  30664.80375566 </i>
    <i name="pawaedc"> -30128.59052083 </i>
    <i name="eentropy">     -0.03594393 </i>
    <i name="bandstr">  -2117.17401348 </i>
    <i name="atom">  22693.01075624 </i>
    <i name="e_fr_energy">   -331.22293364 </i>
    <i name="e_wo_entrp">   -331.18698971 </i>
    <i name="e_0_energy">   -331.20496167 </i>
   </energy>
  </scstep>
  <structure>
   <crystal>
    <varray name="basis" >
     <v>       6.36215693       0.00000000       0.00000000 </v>
     <v>       0.00000000       6.38448299       0.00000000 </v>
     <v>       0.00000000       0.00000000      22.02159841 </v>
    </varray>
    <i name="volume">    894.49712699 </i>
    <varray name="rec_basis" >
     <v>       0.15717940       0.00000000       0.00000000 </v>
     <v>       0.00000000       0.15662975       0.00000000 </v>
     <v>       0.00000000       0.00000000       0.04540996 </v>
    </varray>
   </crystal>
   <varray name="positions" >
    <v>       0.08911000       0.35546000       0.00000000 </v>
    <v>       0.58911000       0.35546000       0.00000000 </v>
    <v>       0.33911000       0.04693000       0.05551000 </v>
    <v>       0.83911000       0.04693000       0.05551000 </v>
    <v>       0.33911000       0.66399000       0.05551000 </v>
    <v>       0.83911000       0.66399000       0.05551000 </v>
    <v>       0.08911000       0.35546000       0.11102000 </v>
    <v>       0.58911000       0.35546000       0.11102000 </v>
    <v>       0.58911000       0.85546000       0.14496000 </v>
    <v>       0.08911000       0.85546000       0.14496000 </v>
    <v>       0.33911000       0.16399000       0.20047000 </v>
    <v>       0.83911000       0.16399000       0.20047000 </v>
    <v>       0.33911000       0.54693000       0.20047000 </v>
    <v>       0.83911000       0.54693000       0.20047000 </v>
    <v>       0.08911000       0.85546000       0.25598000 </v>
    <v>       0.58911000       0.85546000       0.25598000 </v>
    <v>       0.08909594       0.35541179       0.28947884 </v>
    <v>       0.58918752       0.35541177       0.28947902 </v>
    <v>       0.33913173       0.04667478       0.34597873 </v>
    <v>       0.83913302       0.04670045       0.34602566 </v>
    <v>       0.33911903       0.66421055       0.34595631 </v>
    <v>       0.83912034       0.66418559       0.34600315 </v>
    <v>       0.08898372       0.35572433       0.39995196 </v>
    <v>       0.58933322       0.35572425       0.39995258 </v>
    <v>       0.08718831       0.85549197       0.43574410 </v>
    <v>       0.59112750       0.85549214       0.43574406 </v>
    <v>       0.33913837       0.16543191       0.49407001 </v>
    <v>       0.83913674       0.16570394       0.49393330 </v>
    <v>       0.33915042       0.54549166       0.49406260 </v>
    <v>       0.83914924       0.54522717       0.49392597 </v>
    <v>       0.08588018       0.85548305       0.54537410 </v>
    <v>       0.59241969       0.85548297       0.54537435 </v>
    <v>       0.83913516       0.85544588       0.49553274 </v>
    <v>       0.33911000       0.35546000       0.05551000 </v>
    <v>       0.83911000       0.35546000       0.05551000 </v>
    <v>       0.08911000       0.85546000       0.05551000 </v>
    <v>       0.58911000       0.85546000       0.05551000 </v>
    <v>       0.08911000       0.35546000       0.20047000 </v>
    <v>       0.58911000       0.35546000       0.20047000 </v>
    <v>       0.33911000       0.85546000       0.20047000 </v>
    <v>       0.83911000       0.85546000       0.20047000 </v>
    <v>       0.83914270       0.35542883       0.34490501 </v>
    <v>       0.33914319       0.35542854       0.34493008 </v>
    <v>       0.08970999       0.85543956       0.34652606 </v>
    <v>       0.58851792       0.85543943       0.34652618 </v>
    <v>       0.08747777       0.35544582       0.48823663 </v>
    <v>       0.59078549       0.35544601       0.48823552 </v>
    <v>       0.33914517       0.85544942       0.49317280 </v>
   </varray>
  </structure>
  <varray name="forces" >
   <v>      -0.00298269      -0.00095365       0.61220587 </v>
   <v>       0.00143672      -0.00095909       0.61222028 </v>
   <v>       0.00363465       0.03384275      -0.63881659 </v>
   <v>       0.00363923       0.03312657      -0.63864539 </v>
   <v>      -0.00102450      -0.03210854      -0.63981975 </v>
   <v>      -0.00101546      -0.03135775      -0.63962815 </v>
   <v>      -0.00324611      -0.00040556       0.23797696 </v>
   <v>       0.00096579      -0.00040521       0.23798002 </v>
   <v>      -0.00659564       0.00132155      -0.13957976 </v>
   <v>       0.00326062       0.00132062      -0.13959140 </v>
   <v>       0.00055577       0.02717486      -0.03738820 </v>
   <v>       0.00055074       0.02959576      -0.04547332 </v>
   <v>       0.00278148      -0.02707793      -0.03804557 </v>
   <v>       0.00278155      -0.02951585      -0.04611423 </v>
   <v>      -0.00450133       0.00123330       0.51313063 </v>
   <v>       0.00210796       0.00123700       0.51321190 </v>
   <v>      -0.00282006      -0.00134363       0.01431715 </v>
   <v>       0.00409022      -0.00151713       0.01453347 </v>
   <v>       0.00001941       0.02662754       0.01774296 </v>
   <v>       0.00014780      -0.02724136       0.02261653 </v>
   <v>       0.00083599      -0.02524256       0.01612461 </v>
   <v>       0.00094901       0.02888029       0.02061956 </v>
   <v>      -0.01539848       0.00237895       0.01604718 </v>
   <v>       0.01564703       0.00288089       0.01570859 </v>
   <v>      -0.13415510      -0.00068212       0.29642608 </v>
   <v>       0.12860657      -0.00073205       0.29760336 </v>
   <v>      -0.00023178       0.06428939       0.04505736 </v>
   <v>      -0.00123957      -0.01595309       0.12996836 </v>
   <v>       0.00019766      -0.06554846       0.04683475 </v>
   <v>       0.00058054       0.01645892       0.13247779 </v>
   <v>      -0.22088825       0.00132293       0.13492388 </v>
   <v>       0.21954906       0.00122621       0.13241408 </v>
   <v>       0.00590674       0.00095824      -0.28982796 </v>
   <v>      -0.00176569      -0.00129875      -0.84593741 </v>
   <v>      -0.00176917      -0.00128582      -0.84433992 </v>
   <v>      -0.00802999      -0.00045469       1.49865993 </v>
   <v>       0.00267035      -0.00045134       1.49867338 </v>
   <v>       0.00879461      -0.00100523      -0.36049345 </v>
   <v>      -0.00761211      -0.00099793      -0.36043720 </v>
   <v>      -0.00067648      -0.00166727      -0.23857635 </v>
   <v>      -0.00062445      -0.00158459      -0.19432056 </v>
   <v>       0.00020848       0.00055399      -0.00170625 </v>
   <v>      -0.00003409       0.00048580       0.03881002 </v>
   <v>      -0.18660648      -0.00123730      -0.05961192 </v>
   <v>       0.18996263      -0.00103305      -0.06013462 </v>
   <v>       0.33040001      -0.00109504      -0.04724602 </v>
   <v>      -0.32903129      -0.00150981      -0.04596222 </v>
   <v>      -0.00003191      -0.00025078      -0.76458847 </v>
  </varray>
  <varray name="stress" >
   <v>     -18.30561566       0.02299096      -0.02180513 </v>
   <v>       0.02299090      -8.56425793      -0.00453090 </v>
   <v>      -0.02180513      -0.00453095      -3.68204075 </v>
  </varray>
  <energy>
   <i name="e_fr_energy">   -340.96718153 </i>
   <i name="e_wo_entrp">   -340.94920957 </i>
   <i name="e_0_energy">     -0.03594393 </i>
  </energy>
  <time name="totalsc">  347.41  347.55</time>
 </calculation>
 <calculation>
  <scstep>
   <time name="dav">   29.90   29.91</time>
   <time name="total">   31.12   31.13</time>
   <energy>
    <i name="alphaZ">   1010.74268284 </i>
    <i name="ewald">  63341.61706019 </i>
    <i name="hartreedc"> -86418.03689190 </i>
    <i name="XCdc">    622.10798923 </i>
    <i name="pawpsdc">  30664.79326770 </i>
    <i name="pawaedc"> -30128.58005672 </i>
    <i name="eentropy">     -0.03598217 </i>
    <i name="bandstr">  -2116.84242132 </i>
    <i name="atom">  22693.01075624 </i>
    <i name="e_fr_energy">   -331.22359591 </i>
    <i name="e_wo_entrp">   -331.18761373 </i>
    <i name="e_0_energy">   -331.20560482 </i>
   </energy>
  </scstep>
  <scstep>
   <time name="diag">    4.83    4.83</time>
   <time name="diis">   15.18   15.19</time>
   <time name="orth">    0.98    0.98</time>
   <time name="total">   22.22   22.22</time>
   <energy>
    <i name="e_fr_energy">   -331.23098001 </i>
    <i name="e_wo_entrp">   -331.19402084 </i>
    <i name="e_0_energy">   -331.21250043 </i>
   </energy>
  </scstep>
  <scstep>
   <time name="diag">    4.84    4.84</time>
   <time name="diis">   13.25   13.25</time>
   <time name="orth">    0.98    0.98</time>
   <time name="total">   20.28   20.29</time>
   <energy>
    <i name="e_fr_energy">   -331.22508422 </i>
    <i name="e_wo_entrp">   -331.18895457 </i>
    <i name="e_0_energy">   -331.20701940 </i>
   </energy>
  </scstep>
  <scstep>
   <time name="diag">    4.84    4.84</time>
   <time name="diis">   12.11   12.11</time>
   <time name="orth">    0.98    0.98</time>
   <time name="total">   19.14   19.15</time>
   <energy>
    <i name="e_fr_energy">   -331.22487468 </i>
    <i name="e_wo_entrp">   -331.18874783 </i>
    <i name="e_0_energy">   -331.20681126 </i>
   </energy>
  </scstep>
  <scstep>
   <time name="diag">    4.83    4.83</time>
   <time name="diis">   12.06   12.06</time>
   <time name="orth">    0.98    0.98</time>
   <time name="total">   19.09   19.09</time>
   <energy>
    <i name="e_fr_energy">   -331.22445084 </i>
    <i name="e_wo_entrp">   -331.18800667 </i>
    <i name="e_0_energy">   -331.20622876 </i>
   </energy>
  </scstep>
  <scstep>
   <time name="diag">    4.83    4.83</time>
   <time name="diis">   11.88   11.88</time>
   <time name="orth">    0.98    0.98</time>
   <time name="total">   18.91   18.91</time>
   <energy>
    <i name="e_fr_energy">   -331.22421647 </i>
    <i name="e_wo_entrp">   -331.18836299 </i>
    <i name="e_0_energy">   -331.20628973 </i>
   </energy>
  </scstep>
  <scstep>
   <time name="diag">    4.83    4.83</time>
   <time name="diis">   11.20   11.21</time>
   <time name="orth">    0.97    0.97</time>
   <time name="total">   18.23   18.24</time>
   <energy>
    <i name="e_fr_energy">   -331.22377928 </i>
    <i name="e_wo_entrp">   -331.18771448 </i>
    <i name="e_0_energy">   -331.20574688 </i>
   </energy>
  </scstep>
  <scstep>
   <time name="diag">    4.83    4.83</time>
   <time name="diis">    9.64    9.65</time>
   <time name="orth">    0.97    0.98</time>
   <time name="total">   15.75   15.76</time>
   <energy>
    <i name="alphaZ">   1010.74268284 </i>
    <i name="ewald">  63341.61706019 </i>
    <i name="hartreedc"> -86416.78789608 </i>
    <i name="XCdc">    622.09403106 </i>
    <i name="pawpsdc">  30658.68790029 </i>
    <i name="pawaedc"> -30122.44803032 </i>
[...]
       <r>   -20.5402     0.0000     0.0000 </r>
       <r>   -20.4290     0.0000     0.0000 </r>
       <r>   -20.3178     0.0000     0.0000 </r>
       <r>   -20.2066     0.0000     0.0000 </r>
       <r>   -20.0955     0.0128     0.0014 </r>
       <r>   -19.9843     0.5099     0.0581 </r>
       <r>   -19.8731     1.7822     0.2563 </r>
       <r>   -19.7619     2.4125     0.5245 </r>
       <r>   -19.6507     2.5017     0.8026 </r>
       <r>   -19.5396     4.3341     1.2845 </r>
       <r>   -19.4284     5.1186     1.8535 </r>
       <r>   -19.3172     5.7962     2.4980 </r>
       <r>   -19.2060    11.6615     3.7945 </r>
       <r>   -19.0949     7.7282     4.6537 </r>
       <r>   -18.9837    13.7722     6.1848 </r>
       <r>   -18.8725    15.7719     7.9383 </r>
       <r>   -18.7613    16.1493     9.7338 </r>
       <r>   -18.6501    20.3961    12.0014 </r>
       <r>   -18.5390    19.5264    14.1723 </r>
       <r>   -18.4278    18.2484    16.2011 </r>
       <r>   -18.3166    31.9747    19.7560 </r>
       <r>   -18.2054    27.9683    22.8655 </r>
       <r>   -18.0943    19.3944    25.0217 </r>
       <r>   -17.9831    10.6133    26.2017 </r>
       <r>   -17.8719    12.4483    27.5856 </r>
       <r>   -17.7607     3.1078    27.9312 </r>
       <r>   -17.6495     0.6124    27.9992 </r>
       <r>   -17.5384     0.0068    28.0000 </r>
       <r>   -17.4272     0.0000    28.0000 </r>
       <r>   -17.3160     0.0000    28.0000 </r>
       <r>   -17.2048     0.0000    28.0000 </r>
       <r>   -17.0936     0.0000    28.0000 </r>
       <r>   -16.9825     0.0114    28.0013 </r>
       <r>   -16.8713     5.3394    28.5949 </r>
       <r>   -16.7601    10.7301    29.7878 </r>
       <r>   -16.6489     8.0781    30.6859 </r>
       <r>   -16.5378    11.3211    31.9446 </r>
       <r>   -16.4266     0.4982    32.0000 </r>
       <r>   -16.3154     0.0000    32.0000 </r>
       <r>   -16.2042     0.0000    32.0000 </r>
       <r>   -16.0930     0.0000    32.0000 </r>
       <r>   -15.9819     0.0000    32.0000 </r>
       <r>   -15.8707     0.0000    32.0000 </r>
       <r>   -15.7595     0.0000    32.0000 </r>
       <r>   -15.6483     0.0000    32.0000 </r>
       <r>   -15.5372     0.0000    32.0000 </r>
       <r>   -15.4260     0.0000    32.0000 </r>
       <r>   -15.3148     0.0000    32.0000 </r>
       <r>   -15.2036     0.0000    32.0000 </r>
       <r>   -15.0924     0.0000    32.0000 </r>
       <r>   -14.9813     0.0000    32.0000 </r>
       <r>   -14.8701     0.0000    32.0000 </r>
       <r>   -14.7589     0.0000    32.0000 </r>
       <r>   -14.6477     0.0000    32.0000 </r>
       <r>   -14.5366     0.0000    32.0000 </r>
       <r>   -14.4254     0.0000    32.0000 </r>
       <r>   -14.3142     0.0000    32.0000 </r>
       <r>   -14.2030     0.0000    32.0000 </r>
       <r>   -14.0918     0.0000    32.0000 </r>
       <r>   -13.9807     0.0000    32.0000 </r>
       <r>   -13.8695     0.0000    32.0000 </r>
       <r>   -13.7583     0.0000    32.0000 </r>
       <r>   -13.6471     0.0000    32.0000 </r>
       <r>   -13.5360     0.0000    32.0000 </r>
       <r>   -13.4248     0.0000    32.0000 </r>
       <r>   -13.3136     0.0000    32.0000 </r>
       <r>   -13.2024     0.0000    32.0000 </r>
       <r>   -13.0912     0.0000    32.0000 </r>
       <r>   -12.9801     0.0000    32.0000 </r>
       <r>   -12.8689     0.0000    32.0000 </r>
       <r>   -12.7577     0.0000    32.0000 </r>
       <r>   -12.6465     0.0000    32.0000 </r>
       <r>   -12.5353     0.0000    32.0000 </r>
       <r>   -12.4242     0.0000    32.0000 </r>
       <r>   -12.3130     0.0000    32.0000 </r>
       <r>   -12.2018     0.0000    32.0000 </r>
       <r>   -12.0906     0.0000    32.0000 </r>
       <r>   -11.9795     0.0000    32.0000 </r>
       <r>   -11.8683     0.0000    32.0000 </r>
       <r>   -11.7571     0.0000    32.0000 </r>
       <r>   -11.6459     0.0000    32.0000 </r>
       <r>   -11.5347     0.0000    32.0000 </r>
       <r>   -11.4236     0.0000    32.0000 </r>
       <r>   -11.3124     0.0000    32.0000 </r>
       <r>   -11.2012     0.0000    32.0000 </r>
       <r>   -11.0900     0.0000    32.0000 </r>
       <r>   -10.9789     0.0000    32.0000 </r>
       <r>   -10.8677     0.0000    32.0000 </r>
       <r>   -10.7565     0.0000    32.0000 </r>
       <r>   -10.6453     0.0000    32.0000 </r>
       <r>   -10.5341     0.0000    32.0000 </r>
       <r>   -10.4230     0.0000    32.0000 </r>
       <r>   -10.3118     0.0000    32.0000 </r>
       <r>   -10.2006     0.0000    32.0000 </r>
       <r>   -10.0894     0.0000    32.0000 </r>
       <r>    -9.9783     0.0000    32.0000 </r>
       <r>    -9.8671     0.0000    32.0000 </r>
       <r>    -9.7559     0.0000    32.0000 </r>
       <r>    -9.6447     0.0000    32.0000 </r>
       <r>    -9.5335     0.0000    32.0000 </r>
       <r>    -9.4224     0.0000    32.0000 </r>
       <r>    -9.3112     0.0000    32.0000 </r>
       <r>    -9.2000     0.0000    32.0000 </r>
       <r>    -9.0888     0.0000    32.0000 </r>
       <r>    -8.9776     0.0000    32.0000 </r>
       <r>    -8.8665     0.0000    32.0000 </r>
       <r>    -8.7553     0.0000    32.0000 </r>
       <r>    -8.6441     0.1385    32.0154 </r>
       <r>    -8.5329     1.0311    32.1300 </r>
       <r>    -8.4218     1.6701    32.3157 </r>
       <r>    -8.3106     2.3581    32.5779 </r>
       <r>    -8.1994     2.3004    32.8336 </r>
       <r>    -8.0882     6.7044    33.5790 </r>
       <r>    -7.9770     6.4799    34.2994 </r>
       <r>    -7.8659    10.0761    35.4197 </r>
       <r>    -7.7547     3.0897    35.7632 </r>
       <r>    -7.6435     5.0482    36.3244 </r>
       <r>    -7.5323     7.7004    37.1805 </r>
       <r>    -7.4212     8.8285    38.1621 </r>
       <r>    -7.3100     8.5186    39.1092 </r>
       <r>    -7.1988    12.9925    40.5536 </r>
       <r>    -7.0876     7.7833    41.4190 </r>
       <r>    -6.9764    20.4540    43.6930 </r>
       <r>    -6.8653    29.2678    46.9470 </r>
       <r>    -6.7541    30.2321    50.3081 </r>
       <r>    -6.6429    23.2417    52.8921 </r>
       <r>    -6.5317    22.3861    55.3809 </r>
       <r>    -6.4206    18.0426    57.3869 </r>
       <r>    -6.3094    15.8596    59.1501 </r>
       <r>    -6.1982    17.0725    61.0482 </r>
       <r>    -6.0870    11.6170    62.3397 </r>
       <r>    -5.9758    12.0394    63.6783 </r>
       <r>    -5.8647    12.6258    65.0820 </r>
       <r>    -5.7535     7.8334    65.9529 </r>
       <r>    -5.6423    11.2068    67.1988 </r>
       <r>    -5.5311    14.5430    68.8157 </r>
       <r>    -5.4200    10.3333    69.9645 </r>
       <r>    -5.3088    12.5315    71.3577 </r>
       <r>    -5.1976    10.0730    72.4776 </r>
       <r>    -5.0864     9.8449    73.5722 </r>
       <r>    -4.9752    13.5546    75.0792 </r>
       <r>    -4.8641    14.3139    76.6705 </r>
       <r>    -4.7529    16.1536    78.4665 </r>
       <r>    -4.6417    12.3793    79.8428 </r>
       <r>    -4.5305    20.3002    82.0997 </r>
       <r>    -4.4193    24.6848    84.8441 </r>
       <r>    -4.3082    15.1483    86.5283 </r>
       <r>    -4.1970    17.4871    88.4725 </r>
       <r>    -4.0858    20.1300    90.7105 </r>
       <r>    -3.9746    22.4353    93.2048 </r>
       <r>    -3.8635    20.8498    95.5228 </r>
       <r>    -3.7523    22.2351    97.9949 </r>
       <r>    -3.6411    16.1917    99.7951 </r>
       <r>    -3.5299    13.8810   101.3383 </r>
       <r>    -3.4187    21.7307   103.7543 </r>
       <r>    -3.3076    14.2613   105.3398 </r>
       <r>    -3.1964    12.7370   106.7559 </r>
       <r>    -3.0852    11.2500   108.0067 </r>
       <r>    -2.9740    14.2126   109.5868 </r>
       <r>    -2.8629     9.8523   110.6822 </r>
       <r>    -2.7517    15.9545   112.4560 </r>
       <r>    -2.6405     9.8587   113.5520 </r>
       <r>    -2.5293    17.7627   115.5269 </r>
       <r>    -2.4181     9.0726   116.5355 </r>
       <r>    -2.3070     7.4350   117.3621 </r>
       <r>    -2.1958    10.5065   118.5302 </r>
       <r>    -2.0846    15.4550   120.2485 </r>
       <r>    -1.9734    16.8760   122.1247 </r>
       <r>    -1.8623    19.8176   124.3280 </r>
       <r>    -1.7511    10.4432   125.4891 </r>
       <r>    -1.6399     9.0231   126.4922 </r>
       <r>    -1.5287     7.8566   127.3657 </r>
       <r>    -1.4175     4.9098   127.9116 </r>
       <r>    -1.3064     5.7684   128.5529 </r>
       <r>    -1.1952     8.7599   129.5268 </r>
       <r>    -1.0840     9.7569   130.6116 </r>
       <r>    -0.9728    19.9860   132.8336 </r>
       <r>    -0.8616    18.7777   134.9212 </r>
       <r>    -0.7505    29.9194   138.2476 </r>
       <r>    -0.6393    23.1916   140.8260 </r>
       <r>    -0.5281    20.2828   143.0810 </r>
       <r>    -0.4169    27.8301   146.1751 </r>
       <r>    -0.3058    19.2610   148.3165 </r>
       <r>    -0.1946    18.5815   150.3824 </r>
       <r>    -0.0834    14.5638   152.0015 </r>
       <r>     0.0278    12.2442   153.3628 </r>
       <r>     0.1390    15.8312   155.1229 </r>
       <r>     0.2501    15.0630   156.7976 </r>
       <r>     0.3613    12.8889   158.2305 </r>
       <r>     0.4725     8.5565   159.1818 </r>
       <r>     0.5837    11.7514   160.4883 </r>
       <r>     0.6948    18.2184   162.5138 </r>
       <r>     0.8060     9.3097   163.5488 </r>
       <r>     0.9172    13.1114   165.0065 </r>
       <r>     1.0284    16.8626   166.8813 </r>
       <r>     1.1396    15.6458   168.6208 </r>
       <r>     1.2507    19.2575   170.7618 </r>
       <r>     1.3619    14.5907   172.3839 </r>
       <r>     1.4731    15.6510   174.1240 </r>
       <r>     1.5843    10.9192   175.3380 </r>
       <r>     1.6954    12.5449   176.7327 </r>
       <r>     1.8066    12.7294   178.1479 </r>
       <r>     1.9178     5.0518   178.7096 </r>
       <r>     2.0290     7.4870   179.5420 </r>
       <r>     2.1402     4.7130   180.0659 </r>
       <r>     2.2513     2.9752   180.3967 </r>
       <r>     2.3625     1.3170   180.5431 </r>
       <r>     2.4737     2.8782   180.8631 </r>
       <r>     2.5849     3.9849   181.3062 </r>
       <r>     2.6961     7.2902   182.1167 </r>
       <r>     2.8072     7.3611   182.9351 </r>
       <r>     2.9184     8.2501   183.8523 </r>
       <r>     3.0296     3.3506   184.2248 </r>
       <r>     3.1408     5.6146   184.8490 </r>
       <r>     3.2519     6.1273   185.5303 </r>
       <r>     3.3631    10.3742   186.6836 </r>
       <r>     3.4743     5.0595   187.2461 </r>
       <r>     3.5855    10.3253   188.3941 </r>
       <r>     3.6967    14.0381   189.9548 </r>
       <r>     3.8078     6.3716   190.6632 </r>
       <r>     3.9190     4.8097   191.1979 </r>
       <r>     4.0302     9.1502   192.2152 </r>
       <r>     4.1414    13.4896   193.7150 </r>
       <r>     4.2525     9.6803   194.7912 </r>
       <r>     4.3637     7.8110   195.6596 </r>
       <r>     4.4749     8.5605   196.6114 </r>
       <r>     4.5861     6.3091   197.3128 </r>
       <r>     4.6973     9.9410   198.4180 </r>
       <r>     4.8084    14.2791   200.0056 </r>
       <r>     4.9196    13.8439   201.5447 </r>
       <r>     5.0308    17.3184   203.4701 </r>
       <r>     5.1420    12.1398   204.8198 </r>
       <r>     5.2531     4.7708   205.3502 </r>
       <r>     5.3643     8.5508   206.3009 </r>
       <r>     5.4755     8.3147   207.2253 </r>
       <r>     5.5867     6.1019   207.9037 </r>
       <r>     5.6979     0.8615   207.9995 </r>
       <r>     5.8090     0.0086   208.0004 </r>
       <r>     5.9202     1.0563   208.1179 </r>
       <r>     6.0314     2.3867   208.3832 </r>
       <r>     6.1426     4.1383   208.8433 </r>
       <r>     6.2537     4.6122   209.3561 </r>
       <r>     6.3649     0.9510   209.4618 </r>
       <r>     6.4761     2.8576   209.7795 </r>
       <r>     6.5873     2.2717   210.0321 </r>
       <r>     6.6985     2.1637   210.2726 </r>
       <r>     6.8096     4.3871   210.7604 </r>
       <r>     6.9208     1.6241   210.9409 </r>
       <r>     7.0320     0.9636   211.0481 </r>
       <r>     7.1432     0.7739   211.1341 </r>
       <r>     7.2544     0.9244   211.2369 </r>
       <r>     7.3655     2.1250   211.4731 </r>
       <r>     7.4767     7.5274   212.3100 </r>
       <r>     7.5879     5.4043   212.9108 </r>
       <r>     7.6991     3.2363   213.2706 </r>
       <r>     7.8102     7.4269   214.0963 </r>
       <r>     7.9214     2.2849   214.3504 </r>
       <r>     8.0326     2.3785   214.6148 </r>
       <r>     8.1438     3.6703   215.0229 </r>
       <r>     8.2550     7.1831   215.8215 </r>
       <r>     8.3661     3.3735   216.1965 </r>
       <r>     8.4773     3.1937   216.5516 </r>
       <r>     8.5885     7.5734   217.3936 </r>
       <r>     8.6997     4.5320   217.8974 </r>
       <r>     8.8108     3.5312   218.2900 </r>
       <r>     8.9220     2.9180   218.6145 </r>
       <r>     9.0332     7.5300   219.4516 </r>
       <r>     9.1444     6.5434   220.1791 </r>
       <r>     9.2556     9.1385   221.1951 </r>
       <r>     9.3667     7.7647   222.0584 </r>
       <r>     9.4779     7.3577   222.8764 </r>
       <r>     9.5891    14.4108   224.4786 </r>
       <r>     9.7003     7.1410   225.2725 </r>
       <r>     9.8114     4.9503   225.8228 </r>
       <r>     9.9226     4.1333   226.2824 </r>
       <r>    10.0338     6.6302   227.0195 </r>
       <r>    10.1450     5.4401   227.6243 </r>
       <r>    10.2562     2.2088   227.8699 </r>
       <r>    10.3673     1.1530   227.9981 </r>
       <r>    10.4785     0.0172   228.0000 </r>
       <r>    10.5897     0.0000   228.0000 </r>
       <r>    10.7009     0.0000   228.0000 </r>
       <r>    10.8121     0.0000   228.0000 </r>
       <r>    10.9232     0.0000   228.0000 </r>
       <r>    11.0344     0.0000   228.0000 </r>
       <r>    11.1456     0.0000   228.0000 </r>
       <r>    11.2568     0.0000   228.0000 </r>
       <r>    11.3679     0.0000   228.0000 </r>
       <r>    11.4791     0.0000   228.0000 </r>
       <r>    11.5903     0.0000   228.0000 </r>
       <r>    11.7015     0.0000   228.0000 </r>
       <r>    11.8127     0.0000   228.0000 </r>
      </set>
     </set>
    </array>
   </total>
  </dos>
 </calculation>
 <structure name="finalpos" >
  <crystal>
   <varray name="basis" >
    <v>       6.36215693       0.00000000       0.00000000 </v>
    <v>       0.00000000       6.38448299       0.00000000 </v>
    <v>       0.00000000       0.00000000      22.02159841 </v>
   </varray>
   <i name="volume">    894.49712699 </i>
   <varray name="rec_basis" >
    <v>       0.15717940       0.00000000       0.00000000 </v>
    <v>       0.00000000       0.15662975       0.00000000 </v>
    <v>       0.00000000       0.00000000       0.04540996 </v>
   </varray>
  </crystal>
  <varray name="positions" >
   <v>       0.08911000       0.35546000       0.00000000 </v>
   <v>       0.58911000       0.35546000       0.00000000 </v>
   <v>       0.33911000       0.04693000       0.05551000 </v>
   <v>       0.83911000       0.04693000       0.05551000 </v>
   <v>       0.33911000       0.66399000       0.05551000 </v>
   <v>       0.83911000       0.66399000       0.05551000 </v>
   <v>       0.08911000       0.35546000       0.11102000 </v>
   <v>       0.58911000       0.35546000       0.11102000 </v>
   <v>       0.58911000       0.85546000       0.14496000 </v>
   <v>       0.08911000       0.85546000       0.14496000 </v>
   <v>       0.33911000       0.16399000       0.20047000 </v>
   <v>       0.83911000       0.16399000       0.20047000 </v>
   <v>       0.33911000       0.54693000       0.20047000 </v>
   <v>       0.83911000       0.54693000       0.20047000 </v>
   <v>       0.08911000       0.85546000       0.25598000 </v>
   <v>       0.58911000       0.85546000       0.25598000 </v>
   <v>       0.08915417       0.35537871       0.28954096 </v>
   <v>       0.58916095       0.35537771       0.28954077 </v>
   <v>       0.33914596       0.04669055       0.34621915 </v>
   <v>       0.83914695       0.04670657       0.34618253 </v>
   <v>       0.33914516       0.66421761       0.34617768 </v>
   <v>       0.83914478       0.66419986       0.34614112 </v>
   <v>       0.08898201       0.35581544       0.40002829 </v>
   <v>       0.58935972       0.35583286       0.40002808 </v>
   <v>       0.08478585       0.85549764       0.43592256 </v>
   <v>       0.59349530       0.85549717       0.43594092 </v>
   <v>       0.33913992       0.16551506       0.49407220 </v>
   <v>       0.83915587       0.16626347       0.49473288 </v>
   <v>       0.33914932       0.54536448       0.49407691 </v>
   <v>       0.83915308       0.54464193       0.49474339 </v>
   <v>       0.08394776       0.85548274       0.54509066 </v>
   <v>       0.59432535       0.85551036       0.54505885 </v>
   <v>       0.83916033       0.85543781       0.49511924 </v>
   <v>       0.33911000       0.35546000       0.05551000 </v>
   <v>       0.83911000       0.35546000       0.05551000 </v>
   <v>       0.08911000       0.85546000       0.05551000 </v>
   <v>       0.58911000       0.85546000       0.05551000 </v>
   <v>       0.08911000       0.35546000       0.20047000 </v>
   <v>       0.58911000       0.35546000       0.20047000 </v>
   <v>       0.33911000       0.85546000       0.20047000 </v>
   <v>       0.83911000       0.85546000       0.20047000 </v>
   <v>       0.83915679       0.35543489       0.34495742 </v>
   <v>       0.33915566       0.35543648       0.34502403 </v>
   <v>       0.08900852       0.85544334       0.34649155 </v>
   <v>       0.58925736       0.85544118       0.34649895 </v>
   <v>       0.08857447       0.35541791       0.48833070 </v>
   <v>       0.58969890       0.35541829       0.48833103 </v>
   <v>       0.33912870       0.85543381       0.49195739 </v>
  </varray>
  <varray name="selective"  type="logical" >
   <v type="logical" >  F  F  F </v>
   <v type="logical" >  F  F  F </v>
   <v type="logical" >  F  F  F </v>
   <v type="logical" >  F  F  F </v>
   <v type="logical" >  F  F  F </v>
   <v type="logical" >  F  F  F </v>
   <v type="logical" >  F  F  F </v>
   <v type="logical" >  F  F  F </v>
   <v type="logical" >  F  F  F </v>
   <v type="logical" >  F  F  F </v>
   <v type="logical" >  F  F  F </v>
   <v type="logical" >  F  F  F </v>
   <v type="logical" >  F  F  F </v>
   <v type="logical" >  F  F  F </v>
   <v type="logical" >  F  F  F </v>
   <v type="logical" >  F  F  F </v>
   <v type="logical" >  T  T  T </v>
   <v type="logical" >  T  T  T </v>
   <v type="logical" >  T  T  T </v>
   <v type="logical" >  T  T  T </v>
   <v type="logical" >  T  T  T </v>
   <v type="logical" >  T  T  T </v>
   <v type="logical" >  T  T  T </v>
   <v type="logical" >  T  T  T </v>
   <v type="logical" >  T  T  T </v>
   <v type="logical" >  T  T  T </v>
   <v type="logical" >  T  T  T </v>
   <v type="logical" >  T  T  T </v>
   <v type="logical" >  T  T  T </v>
   <v type="logical" >  T  T  T </v>
   <v type="logical" >  T  T  T </v>
   <v type="logical" >  T  T  T </v>
   <v type="logical" >  T  T  T </v>
   <v type="logical" >  F  F  F </v>
   <v type="logical" >  F  F  F </v>
   <v type="logical" >  F  F  F </v>
   <v type="logical" >  F  F  F </v>
   <v type="logical" >  F  F  F </v>
   <v type="logical" >  F  F  F </v>
   <v type="logical" >  F  F  F </v>
   <v type="logical" >  F  F  F </v>
   <v type="logical" >  T  T  T </v>
   <v type="logical" >  T  T  T </v>
   <v type="logical" >  T  T  T </v>
   <v type="logical" >  T  T  T </v>
   <v type="logical" >  T  T  T </v>
   <v type="logical" >  T  T  T </v>
   <v type="logical" >  T  T  T </v>
  </varray>
  <nose>
   <v>      -3.00000000       0.00000000       0.00010000       0.00010000 </v>
  </nose>
 </structure>
</modeling>
