  48  48   0   0
  0.1863536E+02  0.6362157E-09  0.6384483E-09  0.2202160E-08  0.1000000E-15
  1.000000000000000E-004
  CAR 
                                         
     11.81265337    -21.54077350  301      1.02949727      1.00000000
    -21.541  0.0000E+00  0.0000E+00  0.0000E+00  0.0000E+00
    -21.430  0.0000E+00  0.0000E+00  0.0000E+00  0.0000E+00
    -21.318  0.0000E+00  0.0000E+00  0.0000E+00  0.0000E+00
    -21.207  0.0000E+00  0.0000E+00  0.0000E+00  0.0000E+00
    -21.096  0.0000E+00  0.0000E+00  0.0000E+00  0.0000E+00
    -20.985  0.0000E+00  0.0000E+00  0.0000E+00  0.0000E+00
    -20.874  0.0000E+00  0.0000E+00  0.0000E+00  0.0000E+00
    -20.763  0.0000E+00  0.0000E+00  0.0000E+00  0.0000E+00
    -20.651  0.0000E+00  0.0000E+00  0.0000E+00  0.0000E+00
    -20.540  0.0000E+00  0.0000E+00  0.0000E+00  0.0000E+00
    -20.429  0.0000E+00  0.0000E+00  0.0000E+00  0.0000E+00
    -20.318  0.3121E-19  0.3121E-19  0.3469E-20  0.3469E-20
    -20.207  0.6791E-10  0.7492E-10  0.7550E-11  0.8329E-11
    -20.095  0.1221E-04  0.1276E-04  0.1357E-05  0.1418E-05
    -19.984  0.5065E-03  0.5099E-03  0.5767E-04  0.5811E-04
    -19.873  0.1772E-02  0.1782E-02  0.2546E-03  0.2563E-03
    -19.762  0.2390E-02  0.2412E-02  0.5203E-03  0.5245E-03
    -19.651  0.2542E-02  0.2502E-02  0.8030E-03  0.8026E-03
    -19.540  0.4361E-02  0.4334E-02  0.1288E-02  0.1284E-02
    -19.428  0.5058E-02  0.5119E-02  0.1850E-02  0.1854E-02
    -19.317  0.5717E-02  0.5796E-02  0.2486E-02  0.2498E-02
    -19.206  0.1172E-01  0.1166E-01  0.3788E-02  0.3794E-02
    -19.095  0.7553E-02  0.7728E-02  0.4628E-02  0.4654E-02
    -18.984  0.1356E-01  0.1377E-01  0.6136E-02  0.6185E-02
    -18.872  0.1592E-01  0.1577E-01  0.7906E-02  0.7938E-02
    -18.761  0.1693E-01  0.1615E-01  0.9788E-02  0.9734E-02
    -18.650  0.2022E-01  0.2040E-01  0.1204E-01  0.1200E-01
    -18.539  0.1907E-01  0.1953E-01  0.1416E-01  0.1417E-01
    -18.428  0.2020E-01  0.1825E-01  0.1640E-01  0.1620E-01
    -18.317  0.3049E-01  0.3197E-01  0.1979E-01  0.1976E-01
    -18.205  0.2774E-01  0.2797E-01  0.2288E-01  0.2287E-01
    -18.094  0.2016E-01  0.1939E-01  0.2512E-01  0.2502E-01
    -17.983  0.1314E-01  0.1061E-01  0.2658E-01  0.2620E-01
    -17.872  0.9278E-02  0.1245E-01  0.2761E-01  0.2759E-01
    -17.761  0.2784E-02  0.3108E-02  0.2792E-01  0.2793E-01
    -17.650  0.7178E-03  0.6124E-03  0.2800E-01  0.2800E-01
    -17.538  0.1468E-04  0.6819E-05  0.2800E-01  0.2800E-01
    -17.427  0.1024E-09  0.1893E-10  0.2800E-01  0.2800E-01
    -17.316  0.2830E-08  0.0000E+00  0.2800E-01  0.2800E-01
    -17.205  0.2841E-03  0.0000E+00  0.2803E-01  0.2800E-01
    -17.094  0.9475E-02  0.3768E-11  0.2908E-01  0.2800E-01
    -16.982  0.6612E-02  0.1136E-04  0.2982E-01  0.2800E-01
    -16.871  0.1615E-02  0.5339E-02  0.3000E-01  0.2859E-01
    -16.760  0.9993E-05  0.1073E-01  0.3000E-01  0.2979E-01
    -16.649  0.4335E-02  0.8078E-02  0.3048E-01  0.3069E-01
    -16.538  0.1272E-01  0.1132E-01  0.3190E-01  0.3194E-01
    -16.427  0.9224E-03  0.4982E-03  0.3200E-01  0.3200E-01
    -16.315  0.1882E-06  0.4225E-07  0.3200E-01  0.3200E-01
    -16.204  0.5573E-14  0.4285E-15  0.3200E-01  0.3200E-01
    -16.093  0.0000E+00  0.0000E+00  0.3200E-01  0.3200E-01
    -15.982  0.0000E+00  0.0000E+00  0.3200E-01  0.3200E-01
    -15.871  0.0000E+00  0.0000E+00  0.3200E-01  0.3200E-01
    -15.760  0.0000E+00  0.0000E+00  0.3200E-01  0.3200E-01
    -15.648  0.0000E+00  0.0000E+00  0.3200E-01  0.3200E-01
    -15.537  0.0000E+00  0.0000E+00  0.3200E-01  0.3200E-01
    -15.426  0.0000E+00  0.0000E+00  0.3200E-01  0.3200E-01
    -15.315  0.0000E+00  0.0000E+00  0.3200E-01  0.3200E-01
    -15.204  0.0000E+00  0.0000E+00  0.3200E-01  0.3200E-01
    -15.092  0.0000E+00  0.0000E+00  0.3200E-01  0.3200E-01
    -14.981  0.0000E+00  0.0000E+00  0.3200E-01  0.3200E-01
    -14.870  0.0000E+00  0.0000E+00  0.3200E-01  0.3200E-01
    -14.759  0.0000E+00  0.0000E+00  0.3200E-01  0.3200E-01
    -14.648  0.0000E+00  0.0000E+00  0.3200E-01  0.3200E-01
    -14.537  0.0000E+00  0.0000E+00  0.3200E-01  0.3200E-01
    -14.425  0.0000E+00  0.0000E+00  0.3200E-01  0.3200E-01
    -14.314  0.0000E+00  0.0000E+00  0.3200E-01  0.3200E-01
    -14.203  0.0000E+00  0.0000E+00  0.3200E-01  0.3200E-01
    -14.092  0.0000E+00  0.0000E+00  0.3200E-01  0.3200E-01
    -13.981  0.0000E+00  0.0000E+00  0.3200E-01  0.3200E-01
    -13.869  0.0000E+00  0.0000E+00  0.3200E-01  0.3200E-01
    -13.758  0.0000E+00  0.0000E+00  0.3200E-01  0.3200E-01
    -13.647  0.0000E+00  0.0000E+00  0.3200E-01  0.3200E-01
    -13.536  0.0000E+00  0.0000E+00  0.3200E-01  0.3200E-01
    -13.425  0.0000E+00  0.0000E+00  0.3200E-01  0.3200E-01
    -13.314  0.0000E+00  0.0000E+00  0.3200E-01  0.3200E-01
    -13.202  0.0000E+00  0.0000E+00  0.3200E-01  0.3200E-01
    -13.091  0.0000E+00  0.0000E+00  0.3200E-01  0.3200E-01
    -12.980  0.0000E+00  0.0000E+00  0.3200E-01  0.3200E-01
    -12.869  0.0000E+00  0.0000E+00  0.3200E-01  0.3200E-01
    -12.758  0.0000E+00  0.0000E+00  0.3200E-01  0.3200E-01
    -12.647  0.0000E+00  0.0000E+00  0.3200E-01  0.3200E-01
    -12.535  0.0000E+00  0.0000E+00  0.3200E-01  0.3200E-01
    -12.424  0.0000E+00  0.0000E+00  0.3200E-01  0.3200E-01
    -12.313  0.0000E+00  0.0000E+00  0.3200E-01  0.3200E-01
    -12.202  0.0000E+00  0.0000E+00  0.3200E-01  0.3200E-01
    -12.091  0.0000E+00  0.0000E+00  0.3200E-01  0.3200E-01
    -11.979  0.0000E+00  0.0000E+00  0.3200E-01  0.3200E-01
    -11.868  0.0000E+00  0.0000E+00  0.3200E-01  0.3200E-01
    -11.757  0.0000E+00  0.0000E+00  0.3200E-01  0.3200E-01
    -11.646  0.0000E+00  0.0000E+00  0.3200E-01  0.3200E-01
    -11.535  0.0000E+00  0.0000E+00  0.3200E-01  0.3200E-01
    -11.424  0.0000E+00  0.0000E+00  0.3200E-01  0.3200E-01
    -11.312  0.0000E+00  0.0000E+00  0.3200E-01  0.3200E-01
    -11.201  0.0000E+00  0.0000E+00  0.3200E-01  0.3200E-01
    -11.090  0.0000E+00  0.0000E+00  0.3200E-01  0.3200E-01
    -10.979  0.0000E+00  0.0000E+00  0.3200E-01  0.3200E-01
    -10.868  0.0000E+00  0.0000E+00  0.3200E-01  0.3200E-01
    -10.756  0.0000E+00  0.0000E+00  0.3200E-01  0.3200E-01
    -10.645  0.0000E+00  0.0000E+00  0.3200E-01  0.3200E-01
    -10.534  0.0000E+00  0.0000E+00  0.3200E-01  0.3200E-01
    -10.423  0.0000E+00  0.0000E+00  0.3200E-01  0.3200E-01
    -10.312  0.0000E+00  0.0000E+00  0.3200E-01  0.3200E-01
    -10.201  0.0000E+00  0.0000E+00  0.3200E-01  0.3200E-01
    -10.089  0.0000E+00  0.0000E+00  0.3200E-01  0.3200E-01
     -9.978  0.0000E+00  0.0000E+00  0.3200E-01  0.3200E-01
     -9.867  0.0000E+00  0.0000E+00  0.3200E-01  0.3200E-01
     -9.756  0.0000E+00  0.0000E+00  0.3200E-01  0.3200E-01
     -9.645  0.0000E+00  0.0000E+00  0.3200E-01  0.3200E-01
     -9.534  0.0000E+00  0.0000E+00  0.3200E-01  0.3200E-01
     -9.422  0.0000E+00  0.0000E+00  0.3200E-01  0.3200E-01
     -9.311  0.0000E+00  0.0000E+00  0.3200E-01  0.3200E-01
     -9.200  0.0000E+00  0.0000E+00  0.3200E-01  0.3200E-01
     -9.089  0.0000E+00  0.0000E+00  0.3200E-01  0.3200E-01
     -8.978  0.0000E+00  0.0000E+00  0.3200E-01  0.3200E-01
     -8.866  0.1404E-15  0.1782E-15  0.3200E-01  0.3200E-01
     -8.755  0.1334E-07  0.1527E-07  0.3200E-01  0.3200E-01
     -8.644  0.1329E-03  0.1385E-03  0.3201E-01  0.3202E-01
     -8.533  0.1039E-02  0.1031E-02  0.3213E-01  0.3213E-01
     -8.422  0.1650E-02  0.1670E-02  0.3231E-01  0.3232E-01
     -8.311  0.2397E-02  0.2358E-02  0.3258E-01  0.3258E-01
     -8.199  0.2367E-02  0.2300E-02  0.3284E-01  0.3283E-01
     -8.088  0.6698E-02  0.6704E-02  0.3359E-01  0.3358E-01
     -7.977  0.6827E-02  0.6480E-02  0.3435E-01  0.3430E-01
     -7.866  0.9693E-02  0.1008E-01  0.3542E-01  0.3542E-01
     -7.755  0.3050E-02  0.3090E-02  0.3576E-01  0.3576E-01
     -7.644  0.5091E-02  0.5048E-02  0.3633E-01  0.3632E-01
     -7.532  0.8126E-02  0.7700E-02  0.3723E-01  0.3718E-01
     -7.421  0.8390E-02  0.8829E-02  0.3817E-01  0.3816E-01
     -7.310  0.8496E-02  0.8519E-02  0.3911E-01  0.3911E-01
     -7.199  0.1325E-01  0.1299E-01  0.4058E-01  0.4055E-01
     -7.088  0.7829E-02  0.7783E-02  0.4145E-01  0.4142E-01
     -6.976  0.2102E-01  0.2045E-01  0.4379E-01  0.4369E-01
     -6.865  0.3033E-01  0.2927E-01  0.4716E-01  0.4695E-01
     -6.754  0.2967E-01  0.3023E-01  0.5046E-01  0.5031E-01
     -6.643  0.2400E-01  0.2324E-01  0.5313E-01  0.5289E-01
     -6.532  0.2339E-01  0.2239E-01  0.5573E-01  0.5538E-01
     -6.421  0.1624E-01  0.1804E-01  0.5753E-01  0.5739E-01
     -6.309  0.1780E-01  0.1586E-01  0.5951E-01  0.5915E-01
     -6.198  0.1490E-01  0.1707E-01  0.6117E-01  0.6105E-01
     -6.087  0.1230E-01  0.1162E-01  0.6254E-01  0.6234E-01
     -5.976  0.1319E-01  0.1204E-01  0.6401E-01  0.6368E-01
     -5.865  0.1004E-01  0.1263E-01  0.6512E-01  0.6508E-01
     -5.753  0.9487E-02  0.7833E-02  0.6618E-01  0.6595E-01
     -5.642  0.1261E-01  0.1121E-01  0.6758E-01  0.6720E-01
     -5.531  0.1206E-01  0.1454E-01  0.6892E-01  0.6882E-01
     -5.420  0.1068E-01  0.1033E-01  0.7011E-01  0.6996E-01
     -5.309  0.1194E-01  0.1253E-01  0.7143E-01  0.7136E-01
     -5.198  0.1184E-01  0.1007E-01  0.7275E-01  0.7248E-01
     -5.086  0.8984E-02  0.9845E-02  0.7375E-01  0.7357E-01
     -4.975  0.1383E-01  0.1355E-01  0.7529E-01  0.7508E-01
     -4.864  0.1518E-01  0.1431E-01  0.7697E-01  0.7667E-01
     -4.753  0.1465E-01  0.1615E-01  0.7860E-01  0.7847E-01
     -4.642  0.1256E-01  0.1238E-01  0.8000E-01  0.7984E-01
     -4.531  0.2354E-01  0.2030E-01  0.8262E-01  0.8210E-01
     -4.419  0.2210E-01  0.2468E-01  0.8507E-01  0.8484E-01
     -4.308  0.1556E-01  0.1515E-01  0.8680E-01  0.8653E-01
     -4.197  0.1820E-01  0.1749E-01  0.8883E-01  0.8847E-01
     -4.086  0.2044E-01  0.2013E-01  0.9110E-01  0.9071E-01
     -3.975  0.2111E-01  0.2244E-01  0.9345E-01  0.9320E-01
     -3.863  0.2163E-01  0.2085E-01  0.9585E-01  0.9552E-01
     -3.752  0.2198E-01  0.2224E-01  0.9830E-01  0.9799E-01
     -3.641  0.1527E-01  0.1619E-01  0.9999E-01  0.9980E-01
     -3.530  0.1504E-01  0.1388E-01  0.1017E+00  0.1013E+00
     -3.419  0.2151E-01  0.2173E-01  0.1041E+00  0.1038E+00
     -3.308  0.1386E-01  0.1426E-01  0.1056E+00  0.1053E+00
     -3.196  0.1271E-01  0.1274E-01  0.1070E+00  0.1068E+00
     -3.085  0.1226E-01  0.1125E-01  0.1084E+00  0.1080E+00
     -2.974  0.1340E-01  0.1421E-01  0.1099E+00  0.1096E+00
     -2.863  0.1075E-01  0.9852E-02  0.1111E+00  0.1107E+00
     -2.752  0.1588E-01  0.1595E-01  0.1128E+00  0.1125E+00
     -2.640  0.1280E-01  0.9859E-02  0.1142E+00  0.1136E+00
     -2.529  0.1705E-01  0.1776E-01  0.1161E+00  0.1155E+00
     -2.418  0.6173E-02  0.9073E-02  0.1168E+00  0.1165E+00
     -2.307  0.1245E-01  0.7435E-02  0.1182E+00  0.1174E+00
     -2.196  0.1520E-01  0.1051E-01  0.1199E+00  0.1185E+00
     -2.085  0.1462E-01  0.1545E-01  0.1215E+00  0.1202E+00
     -1.973  0.1313E-01  0.1688E-01  0.1230E+00  0.1221E+00
     -1.862  0.1545E-01  0.1982E-01  0.1247E+00  0.1243E+00
     -1.751  0.1073E-01  0.1044E-01  0.1259E+00  0.1255E+00
     -1.640  0.8168E-02  0.9023E-02  0.1268E+00  0.1265E+00
     -1.529  0.5816E-02  0.7857E-02  0.1275E+00  0.1274E+00
     -1.418  0.4580E-02  0.4910E-02  0.1280E+00  0.1279E+00
     -1.306  0.6684E-02  0.5768E-02  0.1287E+00  0.1286E+00
     -1.195  0.8861E-02  0.8760E-02  0.1297E+00  0.1295E+00
     -1.084  0.1080E-01  0.9757E-02  0.1309E+00  0.1306E+00
     -0.973  0.2078E-01  0.1999E-01  0.1332E+00  0.1328E+00
     -0.862  0.1681E-01  0.1878E-01  0.1351E+00  0.1349E+00
     -0.750  0.3099E-01  0.2992E-01  0.1385E+00  0.1382E+00
     -0.639  0.2245E-01  0.2319E-01  0.1410E+00  0.1408E+00
     -0.528  0.2382E-01  0.2028E-01  0.1437E+00  0.1431E+00
     -0.417  0.2760E-01  0.2783E-01  0.1467E+00  0.1462E+00
     -0.306  0.1859E-01  0.1926E-01  0.1488E+00  0.1483E+00
     -0.195  0.1727E-01  0.1858E-01  0.1507E+00  0.1504E+00
     -0.083  0.1460E-01  0.1456E-01  0.1523E+00  0.1520E+00
      0.028  0.1459E-01  0.1224E-01  0.1540E+00  0.1534E+00
      0.139  0.1836E-01  0.1583E-01  0.1560E+00  0.1551E+00
      0.250  0.1218E-01  0.1506E-01  0.1574E+00  0.1568E+00
      0.361  0.1050E-01  0.1289E-01  0.1585E+00  0.1582E+00
      0.472  0.1132E-01  0.8556E-02  0.1598E+00  0.1592E+00
      0.584  0.1348E-01  0.1175E-01  0.1613E+00  0.1605E+00
      0.695  0.2003E-01  0.1822E-01  0.1635E+00  0.1625E+00
      0.806  0.1198E-01  0.9310E-02  0.1648E+00  0.1635E+00
      0.917  0.1328E-01  0.1311E-01  0.1663E+00  0.1650E+00
      1.028  0.1590E-01  0.1686E-01  0.1681E+00  0.1669E+00
      1.140  0.1578E-01  0.1565E-01  0.1698E+00  0.1686E+00
      1.251  0.1647E-01  0.1926E-01  0.1717E+00  0.1708E+00
      1.362  0.1384E-01  0.1459E-01  0.1732E+00  0.1724E+00
      1.473  0.1372E-01  0.1565E-01  0.1747E+00  0.1741E+00
      1.584  0.1250E-01  0.1092E-01  0.1761E+00  0.1753E+00
      1.695  0.9863E-02  0.1254E-01  0.1772E+00  0.1767E+00
      1.807  0.1229E-01  0.1273E-01  0.1786E+00  0.1781E+00
      1.918  0.4276E-02  0.5052E-02  0.1791E+00  0.1787E+00
      2.029  0.7713E-02  0.7487E-02  0.1799E+00  0.1795E+00
      2.140  0.1583E-02  0.4713E-02  0.1801E+00  0.1801E+00
      2.251  0.2771E-02  0.2975E-02  0.1804E+00  0.1804E+00
      2.363  0.1468E-02  0.1317E-02  0.1806E+00  0.1805E+00
      2.474  0.3637E-02  0.2878E-02  0.1810E+00  0.1809E+00
      2.585  0.4532E-02  0.3985E-02  0.1815E+00  0.1813E+00
      2.696  0.7734E-02  0.7290E-02  0.1823E+00  0.1821E+00
      2.807  0.6583E-02  0.7361E-02  0.1831E+00  0.1829E+00
      2.918  0.7505E-02  0.8250E-02  0.1839E+00  0.1839E+00
      3.030  0.3654E-02  0.3351E-02  0.1843E+00  0.1842E+00
      3.141  0.5911E-02  0.5615E-02  0.1850E+00  0.1848E+00
      3.252  0.6005E-02  0.6127E-02  0.1856E+00  0.1855E+00
      3.363  0.1141E-01  0.1037E-01  0.1869E+00  0.1867E+00
      3.474  0.6631E-02  0.5059E-02  0.1876E+00  0.1872E+00
      3.585  0.1039E-01  0.1033E-01  0.1888E+00  0.1884E+00
      3.697  0.1236E-01  0.1404E-01  0.1902E+00  0.1900E+00
      3.808  0.5521E-02  0.6372E-02  0.1908E+00  0.1907E+00
      3.919  0.5414E-02  0.4810E-02  0.1914E+00  0.1912E+00
      4.030  0.1178E-01  0.9150E-02  0.1927E+00  0.1922E+00
      4.141  0.1276E-01  0.1349E-01  0.1941E+00  0.1937E+00
      4.253  0.8706E-02  0.9680E-02  0.1951E+00  0.1948E+00
      4.364  0.6009E-02  0.7811E-02  0.1957E+00  0.1957E+00
      4.475  0.8949E-02  0.8561E-02  0.1967E+00  0.1966E+00
      4.586  0.6126E-02  0.6309E-02  0.1974E+00  0.1973E+00
      4.697  0.1101E-01  0.9941E-02  0.1986E+00  0.1984E+00
      4.808  0.1643E-01  0.1428E-01  0.2005E+00  0.2000E+00
      4.920  0.1424E-01  0.1384E-01  0.2021E+00  0.2015E+00
      5.031  0.1632E-01  0.1732E-01  0.2039E+00  0.2035E+00
      5.142  0.1028E-01  0.1214E-01  0.2050E+00  0.2048E+00
      5.253  0.5112E-02  0.4771E-02  0.2056E+00  0.2054E+00
      5.364  0.9598E-02  0.8551E-02  0.2067E+00  0.2063E+00
      5.476  0.7673E-02  0.8315E-02  0.2075E+00  0.2072E+00
      5.587  0.3774E-02  0.6102E-02  0.2079E+00  0.2079E+00
      5.698  0.6670E-03  0.8615E-03  0.2080E+00  0.2080E+00
      5.809  0.5442E-04  0.8631E-05  0.2080E+00  0.2080E+00
      5.920  0.1497E-02  0.1056E-02  0.2082E+00  0.2081E+00
      6.031  0.2191E-02  0.2387E-02  0.2084E+00  0.2084E+00
      6.143  0.5035E-02  0.4138E-02  0.2090E+00  0.2088E+00
      6.254  0.3610E-02  0.4612E-02  0.2094E+00  0.2094E+00
      6.365  0.1210E-02  0.9510E-03  0.2095E+00  0.2095E+00
      6.476  0.2677E-02  0.2858E-02  0.2098E+00  0.2098E+00
      6.587  0.2090E-02  0.2272E-02  0.2100E+00  0.2100E+00
      6.698  0.2619E-02  0.2164E-02  0.2103E+00  0.2103E+00
      6.810  0.4719E-02  0.4387E-02  0.2109E+00  0.2108E+00
      6.921  0.9504E-03  0.1624E-02  0.2110E+00  0.2109E+00
      7.032  0.8840E-03  0.9636E-03  0.2111E+00  0.2110E+00
      7.143  0.9741E-03  0.7739E-03  0.2112E+00  0.2111E+00
      7.254  0.1048E-02  0.9244E-03  0.2113E+00  0.2112E+00
      7.366  0.2721E-02  0.2125E-02  0.2116E+00  0.2115E+00
      7.477  0.8052E-02  0.7527E-02  0.2125E+00  0.2123E+00
      7.588  0.5099E-02  0.5404E-02  0.2131E+00  0.2129E+00
      7.699  0.3000E-02  0.3236E-02  0.2134E+00  0.2133E+00
      7.810  0.7071E-02  0.7427E-02  0.2142E+00  0.2141E+00
      7.921  0.2146E-02  0.2285E-02  0.2144E+00  0.2144E+00
      8.033  0.2731E-02  0.2378E-02  0.2147E+00  0.2146E+00
      8.144  0.5546E-02  0.3670E-02  0.2153E+00  0.2150E+00
      8.255  0.5264E-02  0.7183E-02  0.2159E+00  0.2158E+00
      8.366  0.3139E-02  0.3373E-02  0.2163E+00  0.2162E+00
      8.477  0.3723E-02  0.3194E-02  0.2167E+00  0.2166E+00
      8.588  0.7833E-02  0.7573E-02  0.2175E+00  0.2174E+00
      8.700  0.4026E-02  0.4532E-02  0.2180E+00  0.2179E+00
      8.811  0.3113E-02  0.3531E-02  0.2183E+00  0.2183E+00
      8.922  0.3711E-02  0.2918E-02  0.2188E+00  0.2186E+00
      9.033  0.7258E-02  0.7530E-02  0.2196E+00  0.2195E+00
      9.144  0.7368E-02  0.6543E-02  0.2204E+00  0.2202E+00
      9.256  0.9609E-02  0.9139E-02  0.2214E+00  0.2212E+00
      9.367  0.6375E-02  0.7765E-02  0.2222E+00  0.2221E+00
      9.478  0.9871E-02  0.7358E-02  0.2233E+00  0.2229E+00
      9.589  0.1255E-01  0.1441E-01  0.2246E+00  0.2245E+00
      9.700  0.6593E-02  0.7141E-02  0.2254E+00  0.2253E+00
      9.811  0.5262E-02  0.4950E-02  0.2260E+00  0.2258E+00
      9.923  0.3568E-02  0.4133E-02  0.2264E+00  0.2263E+00
     10.034  0.6584E-02  0.6630E-02  0.2271E+00  0.2270E+00
     10.145  0.5468E-02  0.5440E-02  0.2277E+00  0.2276E+00
     10.256  0.1439E-02  0.2209E-02  0.2279E+00  0.2279E+00
     10.367  0.1212E-02  0.1153E-02  0.2280E+00  0.2280E+00
     10.479  0.8574E-05  0.1717E-04  0.2280E+00  0.2280E+00
     10.590  0.2422E-10  0.8232E-10  0.2280E+00  0.2280E+00
     10.701  0.0000E+00  0.0000E+00  0.2280E+00  0.2280E+00
     10.812  0.0000E+00  0.0000E+00  0.2280E+00  0.2280E+00
     10.923  0.0000E+00  0.0000E+00  0.2280E+00  0.2280E+00
     11.034  0.0000E+00  0.0000E+00  0.2280E+00  0.2280E+00
     11.146  0.0000E+00  0.0000E+00  0.2280E+00  0.2280E+00
     11.257  0.0000E+00  0.0000E+00  0.2280E+00  0.2280E+00
     11.368  0.0000E+00  0.0000E+00  0.2280E+00  0.2280E+00
     11.479  0.0000E+00  0.0000E+00  0.2280E+00  0.2280E+00
     11.590  0.0000E+00  0.0000E+00  0.2280E+00  0.2280E+00
     11.701  0.0000E+00  0.0000E+00  0.2280E+00  0.2280E+00
     11.813  0.0000E+00  0.0000E+00  0.2280E+00  0.2280E+00
