vasp.5.4.1 08Jul2015 (build Apr 24 2014 00:09:29) complex standard with constrain (TS)    
 executed on IBM of Center for Computational Chemistry date 2018.03.17  20:51:13
 running on   24 total cores
 distrk:  each k-point on   24 cores,    1 groups
 distr:  one band on NCORES_PER_BAND=   6 cores,    4 groups


--------------------------------------------------------------------------------------------------------


 INCAR:
 POTCAR:    PAW_PBE O 08Apr2002                   
 POTCAR:    PAW_PBE Ru 04Feb2005                  
 POTCAR:    PAW_PBE Ir 06Sep2000                  
 POTCAR:    PAW_PBE O 08Apr2002                   
   VRHFIN =O: s2p4                                                              
   LEXCH  = PE                                                                  
   EATOM  =   432.3788 eV,   31.7789 Ry                                         
                                                                                
   TITEL  = PAW_PBE O 08Apr2002                                                 
   LULTRA =        F    use ultrasoft PP ?                                      
   IUNSCR =        1    unscreen: 0-lin 1-nonlin 2-no                           
   RPACOR =    1.200    partial core radius                                     
   POMASS =   16.000; ZVAL   =    6.000    mass and valenz                      
   RCORE  =    1.520    outmost cutoff radius                                   
   RWIGS  =    1.550; RWIGS  =    0.820    wigner-seitz radius (au A)           
   ENMAX  =  400.000; ENMIN  =  300.000 eV                                      
   ICORE  =        2    local potential                                         
   LCOR   =        T    correct aug charges                                     
   LPAW   =        T    paw PP                                                  
   EAUG   =  605.392                                                            
   DEXC   =    0.000                                                            
   RMAX   =    1.553    core radius for proj-oper                               
   RAUG   =    1.300    factor for augmentation sphere                          
   RDEP   =    1.550    radius for radial grids                                 
   RDEPT  =    1.329    core radius for aug-charge                              
                                                                                
   Atomic configuration                                                         
    4 entries                                                                   
     n  l   j            E        occ.                                          
     1  0  0.50      -514.6923   2.0000                                         
     2  0  0.50       -23.9615   2.0000                                         
     2  1  0.50        -9.0305   4.0000                                         
     3  2  1.50        -9.5241   0.0000                                         
   Description                                                                  
     l       E           TYP  RCUT    TYP  RCUT                                 
     0    -23.9615318     23  1.200                                             
     0     -9.5240782     23  1.200                                             
     1     -9.0304911     23  1.520                                             
     1      8.1634956     23  1.520                                             
     2     -9.5240782      7  1.500                                             
  local pseudopotential read in
  partial core-charges read in
  partial kinetic energy density read in
  kinetic energy density of atom read in
  atomic valenz-charges read in
  non local Contribution for L=           0  read in
    real space projection operators read in
  non local Contribution for L=           0  read in
    real space projection operators read in
  non local Contribution for L=           1  read in
    real space projection operators read in
  non local Contribution for L=           1  read in
    real space projection operators read in
    PAW grid and wavefunctions read in
 
   number of l-projection  operators is LMAX  =           4
   number of lm-projection operators is LMMAX =           8
 
 POTCAR:    PAW_PBE Ru 04Feb2005                  
   VRHFIN =Ru: s1 d7                                                            
   LEXCH  = PE                                                                  
   EATOM  =   454.8837 eV,   33.4330 Ry                                         
                                                                                
   TITEL  = PAW_PBE Ru 04Feb2005                                                
   LULTRA =        F    use ultrasoft PP ?                                      
   IUNSCR =        1    unscreen: 0-lin 1-nonlin 2-no                           
   RPACOR =    2.170    partial core radius                                     
   POMASS =  101.070; ZVAL   =    8.000    mass and valenz                      
   RCORE  =    2.700    outmost cutoff radius                                   
   RWIGS  =    2.650; RWIGS  =    1.402    wigner-seitz radius (au A)           
   ENMAX  =  213.271; ENMIN  =  159.953 eV                                      
   ICORE  =        3    local potential                                         
   LCOR   =        T    correct aug charges                                     
   LPAW   =        T    paw PP                                                  
   EAUG   =  333.494                                                            
   DEXC   =    0.000                                                            
   RMAX   =    2.758    core radius for proj-oper                               
   RAUG   =    1.300    factor for augmentation sphere                          
   RDEP   =    2.865    radius for radial grids                                 
   RDEPT  =    2.250    core radius for aug-charge                              
                                                                                
   Atomic configuration                                                         
   12 entries                                                                   
     n  l   j            E        occ.                                          
     1  0  0.50    -21933.2693   2.0000                                         
     2  0  0.50     -3153.4097   2.0000                                         
     2  1  1.50     -2823.9548   6.0000                                         
     3  0  0.50      -555.3323   2.0000                                         
     3  1  1.50      -447.1024   6.0000                                         
     3  2  2.50      -273.0570  10.0000                                         
     4  0  0.50       -76.3589   2.0000                                         
     4  1  1.50       -46.4050   6.0000                                         
     4  2  2.50        -5.2029   7.0000                                         
     5  0  0.50        -4.2392   1.0000                                         
     5  1  0.50        -1.3606   0.0000                                         
     4  3  2.50        -1.3606   0.0000                                         
   Description                                                                  
     l       E           TYP  RCUT    TYP  RCUT                                 
     2     -5.2028939     23  2.600                                             
     2     -6.5634765     23  2.600                                             
     0     -4.2392259     23  2.700                                             
     0     27.2116520     23  2.700                                             
     1     -4.0817478     23  2.700                                             
     1     27.2116520     23  2.700                                             
     3     -5.4423304     23  2.600                                             
  local pseudopotential read in
  partial core-charges read in
  partial kinetic energy density read in
  atomic valenz-charges read in
  non local Contribution for L=           2  read in
    real space projection operators read in
  non local Contribution for L=           2  read in
    real space projection operators read in
  non local Contribution for L=           0  read in
    real space projection operators read in
  non local Contribution for L=           0  read in
    real space projection operators read in
  non local Contribution for L=           1  read in
    real space projection operators read in
  non local Contribution for L=           1  read in
    real space projection operators read in
    PAW grid and wavefunctions read in
 
   number of l-projection  operators is LMAX  =           6
   number of lm-projection operators is LMMAX =          18
 
 POTCAR:    PAW_PBE Ir 06Sep2000                  
   VRHFIN =Ir: s1d8                                                             
   LEXCH  = PE                                                                  
   EATOM  =   560.1833 eV,   41.1723 Ry                                         
                                                                                
   TITEL  = PAW_PBE Ir 06Sep2000                                                
   LULTRA =        F    use ultrasoft PP ?                                      
   IUNSCR =        1    unscreen: 0-lin 1-nonlin 2-no                           
   RPACOR =    2.250    partial core radius                                     
   POMASS =  192.220; ZVAL   =    9.000    mass and valenz                      
   RCORE  =    2.600    outmost cutoff radius                                   
   RWIGS  =    2.690; RWIGS  =    1.423    wigner-seitz radius (au A)           
   ENMAX  =  210.864; ENMIN  =  158.148 eV                                      
   RCLOC  =    1.857    cutoff for local pot                                    
   LCOR   =        T    correct aug charges                                     
   LPAW   =        T    paw PP                                                  
   EAUG   =  318.962                                                            
   DEXC   =    0.000                                                            
   RMAX   =    2.667    core radius for proj-oper                               
   RAUG   =    1.300    factor for augmentation sphere                          
   RDEP   =    2.748    radius for radial grids                                 
   RDEPT  =    2.300    core radius for aug-charge                              
                                                                                
   Atomic configuration                                                         
   16 entries                                                                   
     n  l   j            E        occ.                                          
     1  0  0.50    -76100.0449   2.0000                                         
     2  0  0.50    -13308.1683   2.0000                                         
     2  1  1.50    -11558.0021   6.0000                                         
     3  0  0.50     -3110.7274   2.0000                                         
     3  1  1.50     -2599.2109   6.0000                                         
     3  2  2.50     -2037.1515  10.0000                                         
     4  0  0.50      -661.6001   2.0000                                         
     4  1  1.50      -493.8981   6.0000                                         
     4  2  2.50      -288.1909  10.0000                                         
     4  3  3.50       -59.5718  14.0000                                         
     5  0  0.50       -95.3879   2.0000                                         
     5  1  1.50       -52.2747   6.0000                                         
     5  2  2.50        -5.4180   8.0000                                         
     6  0  0.50        -5.5479   1.0000                                         
     6  1  1.50        -6.8029   0.0000                                         
     5  3  2.50        -1.3606   0.0000                                         
   Description                                                                  
     l       E           TYP  RCUT    TYP  RCUT                                 
     2     -5.4179967     23  2.600                                             
     2     -6.7785793     23  2.600                                             
     0     -5.5478636     23  2.600                                             
     0      2.2542272     23  2.600                                             
     1     -2.7211652     23  2.600                                             
     1     20.4087390     23  2.600                                             
  local pseudopotential read in
  partial core-charges read in
  partial kinetic energy density read in
  atomic valenz-charges read in
  non local Contribution for L=           2  read in
    real space projection operators read in
  non local Contribution for L=           2  read in
    real space projection operators read in
  non local Contribution for L=           0  read in
    real space projection operators read in
  non local Contribution for L=           0  read in
    real space projection operators read in
  non local Contribution for L=           1  read in
    real space projection operators read in
  non local Contribution for L=           1  read in
    real space projection operators read in
    PAW grid and wavefunctions read in
 
   number of l-projection  operators is LMAX  =           6
   number of lm-projection operators is LMMAX =          18
 
 Optimization of the real space projectors (new method)

 maximal supplied QI-value         = 24.76
 optimisation between [QCUT,QGAM] = [ 11.39, 22.77] = [ 36.31,145.25] Ry 
 Optimized for a Real-space Cutoff    1.10 Angstroem

   l    n(q)    QCUT    max X(q) W(low)/X(q) W(high)/X(q)  e(spline) 
   0      7    11.387    20.381    0.22E-03    0.48E-03    0.18E-06
   0      7    11.387    15.268    0.22E-03    0.52E-03    0.19E-06
   1      7    11.387     5.964    0.22E-03    0.73E-03    0.24E-06
   1      7    11.387     5.382    0.19E-03    0.60E-03    0.21E-06
 Optimization of the real space projectors (new method)

 maximal supplied QI-value         = 13.98
 optimisation between [QCUT,QGAM] = [ 11.33, 22.79] = [ 35.93,145.49] Ry 
 Optimized for a Real-space Cutoff    1.56 Angstroem

   l    n(q)    QCUT    max X(q) W(low)/X(q) W(high)/X(q)  e(spline) 
   2     10    11.327    61.733    0.89E-04    0.14E-03    0.14E-06
   2     10    11.327    59.886    0.91E-04    0.15E-03    0.14E-06
   0     11    11.327    23.358    0.43E-04    0.16E-04    0.34E-06
   0     11    11.327    11.320    0.30E-04    0.13E-04    0.28E-06
   1     10    11.327    14.765    0.66E-04    0.60E-04    0.10E-06
   1     10    11.327     8.283    0.48E-04    0.45E-04    0.80E-07
 Optimization of the real space projectors (new method)

 maximal supplied QI-value         = 14.36
 optimisation between [QCUT,QGAM] = [ 11.35, 22.84] = [ 36.05,146.02] Ry 
 Optimized for a Real-space Cutoff    1.56 Angstroem

   l    n(q)    QCUT    max X(q) W(low)/X(q) W(high)/X(q)  e(spline) 
   2     10    11.346   134.116    0.15E-03    0.19E-03    0.91E-06
   2     10    11.346   130.192    0.15E-03    0.19E-03    0.91E-06
   0     11    11.346    60.310    0.46E-04    0.13E-03    0.93E-06
   0     11    11.346    39.218    0.42E-04    0.12E-03    0.87E-06
   1     10    11.346    18.439    0.15E-03    0.81E-05    0.22E-06
   1     10    11.346    12.760    0.12E-03    0.76E-05    0.17E-06
  PAW_PBE O 08Apr2002                   :
 energy of atom  1       EATOM= -432.3788
 kinetic energy error for atom=    0.0224 (will be added to EATOM!!)
  PAW_PBE Ru 04Feb2005                  :
 energy of atom  2       EATOM= -454.8837
 kinetic energy error for atom=    0.0015 (will be added to EATOM!!)
  PAW_PBE Ir 06Sep2000                  :
 energy of atom  3       EATOM= -560.1833
 kinetic energy error for atom=    0.0018 (will be added to EATOM!!)
 
 
 POSCAR: AutoCreatByScript                       
  positions in direct lattice
  No initial velocities read in
 exchange correlation table for  LEXCH =        8
   RHO(1)=    0.500       N(1)  =     2000
   RHO(2)=  100.500       N(2)  =     4000
 


--------------------------------------------------------------------------------------------------------


 ion  position               nearest neighbor table
   1  0.089  0.355  0.000-  34 2.01  35 2.01
   2  0.589  0.355  0.000-  34 2.01  35 2.01
   3  0.339  0.047  0.056-  34 1.97  36 2.01  37 2.01
   4  0.839  0.047  0.056-  35 1.97  36 2.01  37 2.01
   5  0.339  0.664  0.056-  34 1.97  36 2.01  37 2.01
   6  0.839  0.664  0.056-  35 1.97  36 2.01  37 2.01
   7  0.089  0.355  0.111-  38 1.97  35 2.01  34 2.01
   8  0.589  0.355  0.111-  39 1.97  35 2.01  34 2.01
   9  0.589  0.855  0.145-  37 1.97  40 2.01  41 2.01
  10  0.089  0.855  0.145-  36 1.97  40 2.01  41 2.01
  11  0.339  0.164  0.200-  40 1.97  39 2.01  38 2.01
  12  0.839  0.164  0.200-  41 1.97  39 2.01  38 2.01
  13  0.339  0.547  0.200-  40 1.97  39 2.01  38 2.01
  14  0.839  0.547  0.200-  41 1.97  39 2.01  38 2.01
  15  0.089  0.855  0.256-  44 1.99  41 2.01  40 2.01
  16  0.589  0.855  0.256-  45 1.99  41 2.01  40 2.01
  17  0.089  0.355  0.289-  38 1.96  42 2.00  43 2.00
  18  0.589  0.355  0.289-  39 1.96  42 2.00  43 2.00
  19  0.339  0.047  0.346-  43 1.97  45 2.01  44 2.01
  20  0.839  0.047  0.346-  42 1.97  44 2.01  45 2.01
  21  0.339  0.664  0.346-  43 1.97  44 2.01  45 2.01
  22  0.839  0.664  0.346-  42 1.97  44 2.01  45 2.01
  23  0.089  0.356  0.400-  46 1.94  43 2.00  42 2.00
  24  0.589  0.356  0.400-  47 1.94  42 2.00  43 2.00
  25  0.089  0.855  0.436-  44 1.98  33 2.02  48 2.02
  26  0.589  0.855  0.436-  45 1.98  33 2.02  48 2.02
  27  0.339  0.165  0.494-  48 1.98  47 2.00  46 2.00
  28  0.839  0.165  0.494-  33 1.98  46 2.00  47 2.00
  29  0.339  0.546  0.494-  48 1.98  47 2.00  46 2.01
  30  0.839  0.546  0.494-  33 1.98  46 2.00  47 2.01
  31  0.089  0.855  0.547-  33 1.98  48 1.98
  32  0.589  0.855  0.547-  33 1.98  48 1.98
  33  0.839  0.855  0.493-  30 1.98  28 1.98  31 1.98  32 1.98  25 2.02  26 2.02  48 3.18  48 3.18

  34  0.339  0.355  0.056-   3 1.97   5 1.97   1 2.01   2 2.01   7 2.01   8 2.01  35 3.18  35 3.18

  35  0.839  0.355  0.056-   4 1.97   6 1.97   1 2.01   2 2.01   7 2.01   8 2.01  34 3.18  34 3.18

  36  0.089  0.855  0.056-  10 1.97   4 2.01   5 2.01   6 2.01   3 2.01  37 3.18  37 3.18
  37  0.589  0.855  0.056-   9 1.97   4 2.01   5 2.01   6 2.01   3 2.01  36 3.18  36 3.18
  38  0.089  0.355  0.200-  17 1.96   7 1.97  12 2.01  13 2.01  14 2.01  11 2.01  39 3.18  39 3.18

  39  0.589  0.355  0.200-  18 1.96   8 1.97  12 2.01  13 2.01  14 2.01  11 2.01  38 3.18  38 3.18

  40  0.339  0.855  0.200-  11 1.97  13 1.97  15 2.01  16 2.01   9 2.01  10 2.01  41 3.18  41 3.18

  41  0.839  0.855  0.200-  12 1.97  14 1.97  15 2.01  16 2.01   9 2.01  10 2.01  40 3.18  40 3.18

  42  0.839  0.355  0.345-  20 1.97  22 1.97  24 2.00  23 2.00  17 2.00  18 2.00  43 3.18  43 3.18

  43  0.339  0.355  0.345-  19 1.97  21 1.97  23 2.00  24 2.00  17 2.00  18 2.00  42 3.18  42 3.18

  44  0.089  0.855  0.346-  25 1.98  15 1.99  20 2.01  22 2.01  21 2.01  19 2.01  45 3.18  45 3.18

  45  0.589  0.855  0.346-  26 1.98  16 1.99  19 2.01  22 2.01  21 2.01  20 2.01  44 3.18  44 3.18

  46  0.089  0.355  0.488-  23 1.94  28 2.00  30 2.00  27 2.00  29 2.01  47 3.18  47 3.18
  47  0.589  0.355  0.488-  24 1.94  27 2.00  29 2.00  28 2.00  30 2.01  46 3.18  46 3.18
  48  0.339  0.855  0.493-  29 1.98  27 1.98  31 1.98  32 1.98  25 2.02  26 2.02  33 3.18  33 3.18

 

IMPORTANT INFORMATION: All symmetrisations will be switched off!
NOSYMM: (Re-)initialisation of all symmetry stuff for point group C_1.

 
 
 KPOINTS: mesh auto                               

Automatic generation of k-mesh.
Space group operators:
 irot       det(A)        alpha          n_x          n_y          n_z        tau_x        tau_y        tau_z
    1     1.000000     0.000000     1.000000     0.000000     0.000000     0.000000     0.000000     0.000000
 
 Subroutine IBZKPT returns following result:
 ===========================================
 
 Found     10 irreducible k-points:
 
 Following reciprocal coordinates:
            Coordinates               Weight
  0.000000  0.000000  0.000000      1.000000
  0.250000  0.000000  0.000000      2.000000
  0.500000  0.000000  0.000000      1.000000
  0.000000  0.250000  0.000000      2.000000
  0.250000  0.250000  0.000000      2.000000
  0.500000  0.250000  0.000000      2.000000
 -0.250000  0.250000  0.000000      2.000000
  0.000000  0.500000  0.000000      1.000000
  0.250000  0.500000  0.000000      2.000000
  0.500000  0.500000  0.000000      1.000000
 
 Following cartesian coordinates:
            Coordinates               Weight
  0.000000  0.000000  0.000000      1.000000
  0.039295  0.000000  0.000000      2.000000
  0.078590  0.000000  0.000000      1.000000
  0.000000  0.039157  0.000000      2.000000
  0.039295  0.039157  0.000000      2.000000
  0.078590  0.039157  0.000000      2.000000
 -0.039295  0.039157  0.000000      2.000000
  0.000000  0.078315  0.000000      1.000000
  0.039295  0.078315  0.000000      2.000000
  0.078590  0.078315  0.000000      1.000000
 


--------------------------------------------------------------------------------------------------------




 Dimension of arrays:
   k-points           NKPTS =     10   k-points in BZ     NKDIM =     10   number of bands    NBANDS=    228
   number of dos      NEDOS =    301   number of ions     NIONS =     48
   non local maximal  LDIM  =      6   non local SUM 2l+1 LMDIM =     18
   total plane-waves  NPLWV = 373248
   max r-space proj   IRMAX =   6739   max aug-charges    IRDMAX=  30370
   dimension x,y,z NGX =    48 NGY =   48 NGZ =  162
   dimension x,y,z NGXF=    96 NGYF=   96 NGZF=  324
   support grid    NGXF=    96 NGYF=   96 NGZF=  324
   ions per type =              32   1  15
 NGX,Y,Z   is equivalent  to a cutoff of  12.54, 12.50, 12.23 a.u.
 NGXF,Y,Z  is equivalent  to a cutoff of  25.09, 25.00, 24.46 a.u.


 I would recommend the setting:
   dimension x,y,z NGX =    46 NGY =   47 NGZ =  161
 SYSTEM =                                          
 POSCAR =  AutoCreatByScript                       

 Startparameter for this run:
   NWRITE =      2    write-flag & timer
   PREC   = accura    normal or accurate (medium, high low for compatibility)
   ISTART =      0    job   : 0-new  1-cont  2-samecut
   ICHARG =      2    charge: 1-file 2-atom 10-const
   ISPIN  =      2    spin polarized calculation?
   LNONCOLLINEAR =      F non collinear calculations
   LSORBIT =      F    spin-orbit coupling
   INIWAV =      1    electr: 0-lowe 1-rand  2-diag
   LASPH  =      F    aspherical Exc in radial PAW
   METAGGA=      F    non-selfconsistent MetaGGA calc.

 Electronic Relaxation 1
   ENCUT  =  500.0 eV  36.75 Ry    6.06 a.u.  11.60 11.64 40.15*2*pi/ulx,y,z
   ENINI  =  500.0     initial cutoff
   ENAUG  =  605.4 eV  augmentation charge cutoff
   NELM   =    300;   NELMIN=  3; NELMDL= -5     # of ELM steps 
   EDIFF  = 0.1E-03   stopping-criterion for ELM
   LREAL  =      T    real-space projection
   NLSPLINE    = F    spline interpolate recip. space projectors
   LCOMPAT=      F    compatible to vasp.4.4
   GGA_COMPAT  = T    GGA compatible to vasp.4.4-vasp.4.6
   LMAXPAW     = -100 max onsite density
   LMAXMIX     =    2 max onsite mixed and CHGCAR
   VOSKOWN=      0    Vosko Wilk Nusair interpolation
   ROPT   =   -0.00025  -0.00025  -0.00025
 Ionic relaxation
   EDIFFG = -.5E-01   stopping-criterion for IOM
   NSW    =   1000    number of steps for IOM
   NBLOCK =      1;   KBLOCK =   1000    inner block; outer block 
   IBRION =      2    ionic relax: 0-MD 1-quasi-New 2-CG
   NFREE  =      1    steps in history (QN), initial steepest desc. (CG)
   ISIF   =      2    stress and relaxation
   IWAVPR =     11    prediction:  0-non 1-charg 2-wave 3-comb
   ISYM   =      0    0-nonsym 1-usesym 2-fastsym
   LCORR  =      T    Harris-Foulkes like correction to forces

   POTIM  = 0.1000    time-step for ionic-motion
   TEIN   =    0.0    initial temperature
   TEBEG  =    0.0;   TEEND  =   0.0 temperature during run
   SMASS  =  -3.00    Nose mass-parameter (am)
   estimated Nose-frequenzy (Omega)   =  0.10E-29 period in steps =****** mass=  -0.925E-27a.u.
   SCALEE = 1.0000    scale energy and forces
   NPACO  =    256;   APACO  = 16.0  distance and # of slots for P.C.
   PSTRESS=    0.0 pullay stress

  Mass of Ions in am
   POMASS =  16.00101.07192.22
  Ionic Valenz
   ZVAL   =   6.00  8.00  9.00
  Atomic Wigner-Seitz radii
   RWIGS  =  -1.00 -1.00 -1.00
  virtual crystal weights 
   VCA    =   1.00  1.00  1.00
   NELECT =     335.0000    total number of electrons
   NUPDOWN=      -1.0000    fix difference up-down

 DOS related values:
   EMIN   =  10.00;   EMAX   =-10.00  energy-range for DOS
   EFERMI =   0.00
   ISMEAR =     0;   SIGMA  =   0.05  broadening in eV -4-tet -1-fermi 0-gaus

 Electronic relaxation 2 (details)
   IALGO  =     68    algorithm
   LDIAG  =      T    sub-space diagonalisation (order eigenvalues)
   LSUBROT=      F    optimize rotation matrix (better conditioning)
   TURBO    =      0    0=normal 1=particle mesh
   IRESTART =      0    0=no restart 2=restart with 2 vectors
   NREBOOT  =      0    no. of reboots
   NMIN     =      0    reboot dimension
   EREF     =   0.00    reference energy to select bands
   IMIX   =      4    mixing-type and parameters
     AMIX     =   0.40;   BMIX     =  1.00
     AMIX_MAG =   1.60;   BMIX_MAG =  1.00
     AMIN     =   0.10
     WC   =   100.;   INIMIX=   1;  MIXPRE=   1;  MAXMIX= -45

 Intra band minimization:
   WEIMIN = 0.0010     energy-eigenvalue tresh-hold
   EBREAK =  0.11E-06  absolut break condition
   DEPER  =   0.30     relativ break condition  

   TIME   =   0.40     timestep for ELM

  volume/ion in A,a.u.               =      18.64       125.76
  Fermi-wavevector in a.u.,A,eV,Ry     =   1.180040  2.229953 18.946041  1.392495
  Thomas-Fermi vector in A             =   2.316340
 
 Write flags
   LWAVE  =      F    write WAVECAR
   LCHARG =      F    write CHGCAR
   LVTOT  =      F    write LOCPOT, total local potential
   LVHAR  =      F    write LOCPOT, Hartree potential only
   LELF   =      F    write electronic localiz. function (ELF)
   LORBIT =      0    0 simple, 1 ext, 2 COOP (PROOUT)


 Dipole corrections
   LMONO  =      F    monopole corrections only (constant potential shift)
   LDIPOL =      F    correct potential (dipole corrections)
   IDIPOL =      0    1-x, 2-y, 3-z, 4-all directions 
   EPSILON=  1.0000000 bulk dielectric constant

 Exchange correlation treatment:
   GGA     =    --    GGA type
   LEXCH   =     8    internal setting for exchange type
   VOSKOWN=      0    Vosko Wilk Nusair interpolation
   LHFCALC =     F    Hartree Fock is set to
   LHFONE  =     F    Hartree Fock one center treatment
   AEXX    =    0.0000 exact exchange contribution

 Linear response parameters
   LEPSILON=     F    determine dielectric tensor
   LRPA    =     F    only Hartree local field effects (RPA)
   LNABLA  =     F    use nabla operator in PAW spheres
   LVEL    =     F    velocity operator in full k-point grid
   LINTERFAST=   F  fast interpolation
   KINTER  =     0    interpolate to denser k-point grid
   CSHIFT  =0.1000    complex shift for real part using Kramers Kronig
   OMEGAMAX=  -1.0    maximum frequency
   DEG_THRESHOLD= 0.2000000E-02 threshold for treating states as degnerate
   RTIME   =    0.100 relaxation time in fs

 Orbital magnetization related:
   ORBITALMAG=     F  switch on orbital magnetization
   LCHIMAG   =     F  perturbation theory with respect to B field
   DQ        =  0.001000  dq finite difference perturbation B field



--------------------------------------------------------------------------------------------------------


 conjugate gradient relaxation of ions
   using selective dynamics as specified on POSCAR
 charge density and potential will be updated during run
 spin polarized calculation
 RMM-DIIS sequential band-by-band and
  variant of blocked Davidson during initial phase
 perform sub-space diagonalisation
    before iterative eigenvector-optimisation
 modified Broyden-mixing scheme, WC =      100.0
 initial mixing is a Kerker type mixing with AMIX =  0.4000 and BMIX =      1.0000
 Hartree-type preconditioning will be used
 using additional bands           60
 real space projection scheme for non local part
 use partial core corrections
 calculate Harris-corrections to forces 
   (improved forces if not selfconsistent)
 use gradient corrections 
 use of overlap-Matrix (Vanderbilt PP)
 Gauss-broadening in eV      SIGMA  =   0.05


--------------------------------------------------------------------------------------------------------


  energy-cutoff  :      500.00
  volume of cell :      894.50
      direct lattice vectors                 reciprocal lattice vectors
     6.362156930  0.000000000  0.000000000     0.157179399  0.000000000  0.000000000
     0.000000000  6.384482990  0.000000000     0.000000000  0.156629754  0.000000000
     0.000000000  0.000000000 22.021598410     0.000000000  0.000000000  0.045409964

  length of vectors
     6.362156930  6.384482990 22.021598410     0.157179399  0.156629754  0.045409964


 
 k-points in units of 2pi/SCALE and weight: mesh auto                               
   0.00000000  0.00000000  0.00000000       0.062
   0.03929485  0.00000000  0.00000000       0.125
   0.07858970  0.00000000  0.00000000       0.062
   0.00000000  0.03915744  0.00000000       0.125
   0.03929485  0.03915744  0.00000000       0.125
   0.07858970  0.03915744  0.00000000       0.125
  -0.03929485  0.03915744  0.00000000       0.125
   0.00000000  0.07831488  0.00000000       0.062
   0.03929485  0.07831488  0.00000000       0.125
   0.07858970  0.07831488  0.00000000       0.062
 
 k-points in reciprocal lattice and weights: mesh auto                               
   0.00000000  0.00000000  0.00000000       0.062
   0.25000000  0.00000000  0.00000000       0.125
   0.50000000  0.00000000  0.00000000       0.062
   0.00000000  0.25000000  0.00000000       0.125
   0.25000000  0.25000000  0.00000000       0.125
   0.50000000  0.25000000  0.00000000       0.125
  -0.25000000  0.25000000  0.00000000       0.125
   0.00000000  0.50000000  0.00000000       0.062
   0.25000000  0.50000000  0.00000000       0.125
   0.50000000  0.50000000  0.00000000       0.062
 
 position of ions in fractional coordinates (direct lattice) 
   0.08911000  0.35546000  0.00000000
   0.58911000  0.35546000  0.00000000
   0.33911000  0.04693000  0.05551000
   0.83911000  0.04693000  0.05551000
   0.33911000  0.66399000  0.05551000
   0.83911000  0.66399000  0.05551000
   0.08911000  0.35546000  0.11102000
   0.58911000  0.35546000  0.11102000
   0.58911000  0.85546000  0.14496000
   0.08911000  0.85546000  0.14496000
   0.33911000  0.16399000  0.20047000
   0.83911000  0.16399000  0.20047000
   0.33911000  0.54693000  0.20047000
   0.83911000  0.54693000  0.20047000
   0.08911000  0.85546000  0.25598000
   0.58911000  0.85546000  0.25598000
   0.08914000  0.35542000  0.28947000
   0.58914000  0.35542000  0.28947000
   0.33913000  0.04670000  0.34597000
   0.83913000  0.04670000  0.34597000
   0.33911000  0.66418000  0.34595000
   0.83911000  0.66418000  0.34595000
   0.08916000  0.35571000  0.39990000
   0.58916000  0.35571000  0.39990000
   0.08915000  0.85549000  0.43609000
   0.58915000  0.85549000  0.43609000
   0.33914000  0.16538000  0.49406000
   0.83914000  0.16538000  0.49406000
   0.33915000  0.54556000  0.49405000
   0.83915000  0.54556000  0.49405000
   0.08915000  0.85548000  0.54665000
   0.58915000  0.85548000  0.54665000
   0.83915000  0.85545000  0.49288000
   0.33911000  0.35546000  0.05551000
   0.83911000  0.35546000  0.05551000
   0.08911000  0.85546000  0.05551000
   0.58911000  0.85546000  0.05551000
   0.08911000  0.35546000  0.20047000
   0.58911000  0.35546000  0.20047000
   0.33911000  0.85546000  0.20047000
   0.83911000  0.85546000  0.20047000
   0.83914000  0.35543000  0.34488000
   0.33914000  0.35543000  0.34488000
   0.08911000  0.85543000  0.34634000
   0.58911000  0.85543000  0.34634000
   0.08913000  0.35545000  0.48811000
   0.58913000  0.35545000  0.48811000
   0.33915000  0.85545000  0.49288000
 
 position of ions in cartesian coordinates  (Angst):
   0.56693180  2.26942832  0.00000000
   3.74801027  2.26942832  0.00000000
   2.15747104  0.29962379  1.22241893
   5.33854950  0.29962379  1.22241893
   2.15747104  4.23923286  1.22241893
   5.33854950  4.23923286  1.22241893
   0.56693180  2.26942832  2.44483786
   3.74801027  2.26942832  2.44483786
   3.74801027  5.46166982  3.19225091
   0.56693180  5.46166982  3.19225091
   2.15747104  1.04699137  4.41466983
   5.33854950  1.04699137  4.41466983
   2.15747104  3.49186528  4.41466983
   5.33854950  3.49186528  4.41466983
   0.56693180  5.46166982  5.63708876
   3.74801027  5.46166982  5.63708876
   0.56712267  2.26917294  6.37459209
   3.74820113  2.26917294  6.37459209
   2.15759828  0.29815536  7.61881240
   5.33867674  0.29815536  7.61881240
   2.15747104  4.24044591  7.61837197
   5.33854950  4.24044591  7.61837197
   0.56724991  2.27102444  8.80643720
   3.74832838  2.27102444  8.80643720
   0.56718629  5.46186135  9.60339885
   3.74826476  5.46186135  9.60339885
   2.15766190  1.05586580 10.87999091
   5.33874037  1.05586580 10.87999091
   2.15772552  3.48311854 10.87977069
   5.33880399  3.48311854 10.87977069
   0.56718629  5.46179751 12.03810677
   3.74826476  5.46179751 12.03810677
   5.33880399  5.46160597 10.85400542
   2.15747104  2.26942832  1.22241893
   5.33854950  2.26942832  1.22241893
   0.56693180  5.46166982  1.22241893
   3.74801027  5.46166982  1.22241893
   0.56693180  2.26942832  4.41466983
   3.74801027  2.26942832  4.41466983
   2.15747104  5.46166982  4.41466983
   5.33854950  5.46166982  4.41466983
   5.33874037  2.26923679  7.59480886
   2.15766190  2.26923679  7.59480886
   0.56693180  5.46147828  7.62696039
   3.74801027  5.46147828  7.62696039
   0.56705905  2.26936448 10.74896240
   3.74813751  2.26936448 10.74896240
   2.15772552  5.46160597 10.85400542
 


--------------------------------------------------------------------------------------------------------


 k-point  1 :   0.0000 0.0000 0.0000  plane waves:   22777
 k-point  2 :   0.2500 0.0000 0.0000  plane waves:   22753
 k-point  3 :   0.5000 0.0000 0.0000  plane waves:   22672
 k-point  4 :   0.0000 0.2500 0.0000  plane waves:   22749
 k-point  5 :   0.2500 0.2500 0.0000  plane waves:   22704
 k-point  6 :   0.5000 0.2500 0.0000  plane waves:   22658
 k-point  7 :  -0.2500 0.2500 0.0000  plane waves:   22704
 k-point  8 :   0.0000 0.5000 0.0000  plane waves:   22664
 k-point  9 :   0.2500 0.5000 0.0000  plane waves:   22700
 k-point 10 :   0.5000 0.5000 0.0000  plane waves:   22720

 maximum and minimum number of plane-waves per node :      3820     3736

 maximum number of plane-waves:     22777
 maximum index in each direction: 
   IXMAX=   11   IYMAX=   11   IZMAX=   40
   IXMIN=  -12   IYMIN=  -12   IZMIN=  -40

 NGX is ok and might be reduce to  48
 NGY is ok and might be reduce to  48
 NGZ is ok and might be reduce to 162

 real space projection operators:
  total allocation   :      19093.28 KBytes
  max/ min on nodes  :       3216.97       3106.75


 parallel 3D FFT for wavefunctions:
    minimum data exchange during FFTs selected (reduces bandwidth)
 parallel 3D FFT for charge:
    minimum data exchange during FFTs selected (reduces bandwidth)


 total amount of memory used by VASP on root node   132558. kBytes
========================================================================

   base      :      30000. kBytes
   nonlr-proj:       9437. kBytes
   fftplans  :       6037. kBytes
   grid      :      15992. kBytes
   one-center:        248. kBytes
   wavefun   :      70844. kBytes
 
     INWAV:  cpu time    0.0000: real time    0.0001
 Broyden mixing: mesh for mixing (old mesh)
   NGX = 23   NGY = 23   NGZ = 81
  (NGX  = 96   NGY  = 96   NGZ  =324)
  gives a total of  42849 points

 initial charge density was supplied:
 charge density of overlapping atoms calculated
 number of electron     335.0000000 magnetization      48.0000000
 keeping initial charge density in first step


--------------------------------------------------------------------------------------------------------


 Maximum index for non-local projection operator         1105
 Maximum index for augmentation-charges         1327 (set IRDMAX)


--------------------------------------------------------------------------------------------------------


 First call to EWALD:  gamma=   0.184
 Maximum number of real-space cells 4x 4x 1
 Maximum number of reciprocal cells 2x 2x 6

 FEWALD executed in parallel
    FEWALD:  cpu time    0.0040: real time    0.0032


----------------------------------------- Iteration    1(   1)  ---------------------------------------


    POTLOK:  cpu time    0.2780: real time    0.2777
    SETDIJ:  cpu time    0.0260: real time    0.0266
     EDDAV:  cpu time   28.6067: real time   28.6116
       DOS:  cpu time    0.0030: real time    0.0032
    --------------------------------------------
      LOOP:  cpu time   28.9186: real time   28.9279

 eigenvalue-minimisations  :  9128
 total energy-change (2. order) : 0.3647305E+04  (-0.1530599E+05)
 number of electron     335.0000000 magnetization      48.0000000
 augmentation part      335.0000000 magnetization      48.0000000

 Free energy of the ion-electron system (eV)
  ---------------------------------------------------
  alpha Z        PSCENC =      1010.74268284
  Ewald energy   TEWEN  =     63361.79029010
  -Hartree energ DENC   =    -86306.63180849
  -exchange      EXHF   =         0.00000000
  -V(xc)+E(xc)   XCENC  =       605.51242773
  PAW double counting   =     19817.25559889   -19221.22191302
  entropy T*S    EENTRO =        -0.02109336
  eigenvalues    EBANDS =      1686.86781393
  atomic energy  EATOM  =     22693.01075624
  Solvation  Ediel_sol  =         0.00000000
  ---------------------------------------------------
  free energy    TOTEN  =      3647.30475486 eV

  energy without entropy =     3647.32584822  energy(sigma->0) =     3647.31530154


--------------------------------------------------------------------------------------------------------




----------------------------------------- Iteration    1(   2)  ---------------------------------------


     EDDAV:  cpu time   29.6475: real time   29.6596
       DOS:  cpu time    0.0030: real time    0.0033
    --------------------------------------------
      LOOP:  cpu time   29.6515: real time   29.6657

 eigenvalue-minimisations  :  9560
 total energy-change (2. order) :-0.3485466E+04  (-0.3184155E+04)
 number of electron     335.0000000 magnetization      48.0000000
 augmentation part      335.0000000 magnetization      48.0000000

 Free energy of the ion-electron system (eV)
  ---------------------------------------------------
  alpha Z        PSCENC =      1010.74268284
  Ewald energy   TEWEN  =     63361.79029010
  -Hartree energ DENC   =    -86306.63180849
  -exchange      EXHF   =         0.00000000
  -V(xc)+E(xc)   XCENC  =       605.51242773
  PAW double counting   =     19817.25559889   -19221.22191302
  entropy T*S    EENTRO =        -0.02259645
  eigenvalues    EBANDS =     -1798.59620400
  atomic energy  EATOM  =     22693.01075624
  Solvation  Ediel_sol  =         0.00000000
  ---------------------------------------------------
  free energy    TOTEN  =       161.83923384 eV

  energy without entropy =      161.86183028  energy(sigma->0) =      161.85053206


--------------------------------------------------------------------------------------------------------




----------------------------------------- Iteration    1(   3)  ---------------------------------------


     EDDAV:  cpu time   33.4019: real time   33.4107
       DOS:  cpu time    0.0040: real time    0.0045
    --------------------------------------------
      LOOP:  cpu time   33.4079: real time   33.4183

 eigenvalue-minimisations  : 11176
 total energy-change (2. order) :-0.5244597E+03  (-0.4991744E+03)
 number of electron     335.0000000 magnetization      48.0000000
 augmentation part      335.0000000 magnetization      48.0000000

 Free energy of the ion-electron system (eV)
  ---------------------------------------------------
  alpha Z        PSCENC =      1010.74268284
  Ewald energy   TEWEN  =     63361.79029010
  -Hartree energ DENC   =    -86306.63180849
  -exchange      EXHF   =         0.00000000
  -V(xc)+E(xc)   XCENC  =       605.51242773
  PAW double counting   =     19817.25559889   -19221.22191302
  entropy T*S    EENTRO =        -0.03543946
  eigenvalues    EBANDS =     -2323.04305443
  atomic energy  EATOM  =     22693.01075624
  Solvation  Ediel_sol  =         0.00000000
  ---------------------------------------------------
  free energy    TOTEN  =      -362.62045961 eV

  energy without entropy =     -362.58502015  energy(sigma->0) =     -362.60273988


--------------------------------------------------------------------------------------------------------




----------------------------------------- Iteration    1(   4)  ---------------------------------------


     EDDAV:  cpu time   33.8529: real time   33.8612
       DOS:  cpu time    0.0030: real time    0.0037
    --------------------------------------------
      LOOP:  cpu time   33.8579: real time   33.8690

 eigenvalue-minimisations  : 11384
 total energy-change (2. order) :-0.2390621E+02  (-0.2349359E+02)
 number of electron     335.0000000 magnetization      48.0000000
 augmentation part      335.0000000 magnetization      48.0000000

 Free energy of the ion-electron system (eV)
  ---------------------------------------------------
  alpha Z        PSCENC =      1010.74268284
  Ewald energy   TEWEN  =     63361.79029010
  -Hartree energ DENC   =    -86306.63180849
  -exchange      EXHF   =         0.00000000
  -V(xc)+E(xc)   XCENC  =       605.51242773
  PAW double counting   =     19817.25559889   -19221.22191302
  entropy T*S    EENTRO =        -0.03703803
  eigenvalues    EBANDS =     -2346.94766745
  atomic energy  EATOM  =     22693.01075624
  Solvation  Ediel_sol  =         0.00000000
  ---------------------------------------------------
  free energy    TOTEN  =      -386.52667119 eV

  energy without entropy =     -386.48963316  energy(sigma->0) =     -386.50815217


--------------------------------------------------------------------------------------------------------




----------------------------------------- Iteration    1(   5)  ---------------------------------------


     EDDAV:  cpu time   33.5939: real time   33.6027
       DOS:  cpu time    0.0030: real time    0.0035
    CHARGE:  cpu time    0.9179: real time    0.9183
    MIXING:  cpu time    0.0050: real time    0.0049
    --------------------------------------------
      LOOP:  cpu time   34.5208: real time   34.5332

 eigenvalue-minimisations  : 11264
 total energy-change (2. order) :-0.6085124E+00  (-0.6064977E+00)
 number of electron     334.9999936 magnetization      43.6478592
 augmentation part       59.3747379 magnetization      36.8979622

 Broyden mixing:
  rms(total) = 0.13152E+02    rms(broyden)= 0.13152E+02
  rms(prec ) = 0.13341E+02
  weight for this iteration     100.00

 Free energy of the ion-electron system (eV)
  ---------------------------------------------------
  alpha Z        PSCENC =      1010.74268284
  Ewald energy   TEWEN  =     63361.79029010
  -Hartree energ DENC   =    -86306.63180849
  -exchange      EXHF   =         0.00000000
  -V(xc)+E(xc)   XCENC  =       605.51242773
  PAW double counting   =     19817.25559889   -19221.22191302
  entropy T*S    EENTRO =        -0.03697789
  eigenvalues    EBANDS =     -2347.55623998
  atomic energy  EATOM  =     22693.01075624
  Solvation  Ediel_sol  =         0.00000000
  ---------------------------------------------------
  free energy    TOTEN  =      -387.13518359 eV

  energy without entropy =     -387.09820569  energy(sigma->0) =     -387.11669464


--------------------------------------------------------------------------------------------------------




----------------------------------------- Iteration    1(   6)  ---------------------------------------


    POTLOK:  cpu time    0.2730: real time    0.2737
    SETDIJ:  cpu time    0.0250: real time    0.0253
    EDDIAG:  cpu time    4.7873: real time    4.7895
  RMM-DIIS:  cpu time   15.6716: real time   15.6759
    ORTHCH:  cpu time    0.9709: real time    0.9709
       DOS:  cpu time    0.0030: real time    0.0031
    CHARGE:  cpu time    0.9149: real time    0.9146
    MIXING:  cpu time    0.0050: real time    0.0049
    --------------------------------------------
      LOOP:  cpu time   22.6526: real time   22.6611

 eigenvalue-minimisations  :  9136
 total energy-change (2. order) : 0.9068622E+02  (-0.3693774E+02)
 number of electron     334.9999941 magnetization      39.8342876
 augmentation part       63.7342235 magnetization      30.6140633

 Broyden mixing:
  rms(total) = 0.78236E+01    rms(broyden)= 0.78223E+01
  rms(prec ) = 0.82030E+01
  weight for this iteration     100.00

 eigenvalues of (default mixing * dielectric matrix)
  average eigenvalue GAMMA=   1.0227
  1.0227

 Free energy of the ion-electron system (eV)
  ---------------------------------------------------
  alpha Z        PSCENC =      1010.74268284
  Ewald energy   TEWEN  =     63361.79029010
  -Hartree energ DENC   =    -86503.79048660
  -exchange      EXHF   =         0.00000000
  -V(xc)+E(xc)   XCENC  =       659.08876659
  PAW double counting   =     23924.51621597   -23362.24640916
  entropy T*S    EENTRO =        -0.02128037
  eigenvalues    EBANDS =     -2079.53950099
  atomic energy  EATOM  =     22693.01075624
  Solvation  Ediel_sol  =         0.00000000
  ---------------------------------------------------
  free energy    TOTEN  =      -296.44896540 eV

  energy without entropy =     -296.42768502  energy(sigma->0) =     -296.43832521


--------------------------------------------------------------------------------------------------------




----------------------------------------- Iteration    1(   7)  ---------------------------------------


    POTLOK:  cpu time    0.2720: real time    0.2718
    SETDIJ:  cpu time    0.0260: real time    0.0252
    EDDIAG:  cpu time    4.7863: real time    4.7889
  RMM-DIIS:  cpu time   15.7136: real time   15.7186
    ORTHCH:  cpu time    0.9699: real time    0.9693
       DOS:  cpu time    0.0030: real time    0.0034
    CHARGE:  cpu time    0.9139: real time    0.9153
    MIXING:  cpu time    0.0050: real time    0.0050
    --------------------------------------------
      LOOP:  cpu time   22.6906: real time   22.7007

 eigenvalue-minimisations  :  9200
 total energy-change (2. order) :-0.1398216E+03  (-0.1004789E+02)
 number of electron     334.9999948 magnetization      38.6390367
 augmentation part       62.0306486 magnetization      29.9528523

 Broyden mixing:
  rms(total) = 0.17845E+02    rms(broyden)= 0.17844E+02
  rms(prec ) = 0.20653E+02
  weight for this iteration     100.00

 eigenvalues of (default mixing * dielectric matrix)
  average eigenvalue GAMMA=   0.6285
  1.1410  0.1160

 Free energy of the ion-electron system (eV)
  ---------------------------------------------------
  alpha Z        PSCENC =      1010.74268284
  Ewald energy   TEWEN  =     63361.79029010
  -Hartree energ DENC   =    -86744.26615018
  -exchange      EXHF   =         0.00000000
  -V(xc)+E(xc)   XCENC  =       647.53675208
  PAW double counting   =     26924.11705524   -26367.08021847
  entropy T*S    EENTRO =        -0.03191833
  eigenvalues    EBANDS =     -1962.08978827
  atomic energy  EATOM  =     22693.01075624
  Solvation  Ediel_sol  =         0.00000000
  ---------------------------------------------------
  free energy    TOTEN  =      -436.27053874 eV

  energy without entropy =     -436.23862042  energy(sigma->0) =     -436.25457958


--------------------------------------------------------------------------------------------------------




----------------------------------------- Iteration    1(   8)  ---------------------------------------


    POTLOK:  cpu time    0.2720: real time    0.2718
    SETDIJ:  cpu time    0.0250: real time    0.0252
    EDDIAG:  cpu time    4.7873: real time    4.7891
  RMM-DIIS:  cpu time   15.6336: real time   15.6358
    ORTHCH:  cpu time    0.9709: real time    0.9719
       DOS:  cpu time    0.0040: real time    0.0033
    CHARGE:  cpu time    0.9179: real time    0.9187
    MIXING:  cpu time    0.0050: real time    0.0051
    --------------------------------------------
      LOOP:  cpu time   22.6166: real time   22.6244

 eigenvalue-minimisations  :  9123
 total energy-change (2. order) : 0.1154688E+03  (-0.1283911E+01)
 number of electron     334.9999942 magnetization      35.4977376
 augmentation part       61.9582010 magnetization      29.5217978

 Broyden mixing:
  rms(total) = 0.71653E+01    rms(broyden)= 0.71646E+01
  rms(prec ) = 0.78721E+01
  weight for this iteration     100.00

 eigenvalues of (default mixing * dielectric matrix)
  average eigenvalue GAMMA=   0.6868
  1.4177  0.4522  0.1904

 Free energy of the ion-electron system (eV)
  ---------------------------------------------------
  alpha Z        PSCENC =      1010.74268284
  Ewald energy   TEWEN  =     63361.79029010
  -Hartree energ DENC   =    -86699.37225297
  -exchange      EXHF   =         0.00000000
  -V(xc)+E(xc)   XCENC  =       646.95528682
  PAW double counting   =     27918.63873277   -27364.55682064
  entropy T*S    EENTRO =        -0.02595147
  eigenvalues    EBANDS =     -1887.98447415
  atomic energy  EATOM  =     22693.01075624
  Solvation  Ediel_sol  =         0.00000000
  ---------------------------------------------------
  free energy    TOTEN  =      -320.80175046 eV

  energy without entropy =     -320.77579899  energy(sigma->0) =     -320.78877473


--------------------------------------------------------------------------------------------------------




----------------------------------------- Iteration    1(   9)  ---------------------------------------


    POTLOK:  cpu time    0.2720: real time    0.2719
    SETDIJ:  cpu time    0.0250: real time    0.0251
    EDDIAG:  cpu time    4.7873: real time    4.7887
  RMM-DIIS:  cpu time   15.6316: real time   15.6342
    ORTHCH:  cpu time    0.9709: real time    0.9708
       DOS:  cpu time    0.0030: real time    0.0034
    CHARGE:  cpu time    0.9109: real time    0.9107
    MIXING:  cpu time    0.0050: real time    0.0054
    --------------------------------------------
      LOOP:  cpu time   22.6066: real time   22.6136

 eigenvalue-minimisations  :  9127
 total energy-change (2. order) :-0.2784189E+02  (-0.4099365E+01)
 number of electron     334.9999941 magnetization      33.2503305
 augmentation part       61.4679431 magnetization      28.7261752

 Broyden mixing:
  rms(total) = 0.11978E+02    rms(broyden)= 0.11978E+02
  rms(prec ) = 0.14257E+02
  weight for this iteration     100.00

 eigenvalues of (default mixing * dielectric matrix)
  average eigenvalue GAMMA=   0.6579
  1.7365  0.5171  0.2377  0.1402

 Free energy of the ion-electron system (eV)
  ---------------------------------------------------
  alpha Z        PSCENC =      1010.74268284
  Ewald energy   TEWEN  =     63361.79029010
  -Hartree energ DENC   =    -86433.13651785
  -exchange      EXHF   =         0.00000000
  -V(xc)+E(xc)   XCENC  =       648.48882155
  PAW double counting   =     29208.23547731   -28661.74587386
  entropy T*S    EENTRO =        -0.02960533
  eigenvalues    EBANDS =     -2175.99967496
  atomic energy  EATOM  =     22693.01075624
  Solvation  Ediel_sol  =         0.00000000
  ---------------------------------------------------
  free energy    TOTEN  =      -348.64364396 eV

  energy without entropy =     -348.61403863  energy(sigma->0) =     -348.62884130


--------------------------------------------------------------------------------------------------------




----------------------------------------- Iteration    1(  10)  ---------------------------------------


    POTLOK:  cpu time    0.2720: real time    0.2716
    SETDIJ:  cpu time    0.0250: real time    0.0253
    EDDIAG:  cpu time    4.7883: real time    4.7889
  RMM-DIIS:  cpu time   15.6306: real time   15.6324
    ORTHCH:  cpu time    0.9689: real time    0.9694
       DOS:  cpu time    0.0040: real time    0.0035
    CHARGE:  cpu time    0.9169: real time    0.9176
    MIXING:  cpu time    0.0060: real time    0.0055
    --------------------------------------------
      LOOP:  cpu time   22.6116: real time   22.6175

 eigenvalue-minimisations  :  9133
 total energy-change (2. order) : 0.5966207E+02  (-0.1198725E+01)
 number of electron     334.9999932 magnetization      30.9877483
 augmentation part       61.1602990 magnetization      24.4532494

 Broyden mixing:
  rms(total) = 0.37561E+01    rms(broyden)= 0.37553E+01
  rms(prec ) = 0.41971E+01
  weight for this iteration     100.00

 eigenvalues of (default mixing * dielectric matrix)
  average eigenvalue GAMMA=   0.6674
  1.9715  0.5849  0.3179  0.3179  0.1445

 Free energy of the ion-electron system (eV)
  ---------------------------------------------------
  alpha Z        PSCENC =      1010.74268284
  Ewald energy   TEWEN  =     63361.79029010
  -Hartree energ DENC   =    -86559.74839736
  -exchange      EXHF   =         0.00000000
  -V(xc)+E(xc)   XCENC  =       651.92968003
  PAW double counting   =     30300.58620136   -29757.76981436
  entropy T*S    EENTRO =        -0.03388213
  eigenvalues    EBANDS =     -1989.48908859
  atomic energy  EATOM  =     22693.01075624
  Solvation  Ediel_sol  =         0.00000000
  ---------------------------------------------------
  free energy    TOTEN  =      -288.98157188 eV

  energy without entropy =     -288.94768975  energy(sigma->0) =     -288.96463081


--------------------------------------------------------------------------------------------------------




----------------------------------------- Iteration    1(  11)  ---------------------------------------


    POTLOK:  cpu time    0.2720: real time    0.2716
    SETDIJ:  cpu time    0.0250: real time    0.0253
    EDDIAG:  cpu time    4.7833: real time    4.7841
  RMM-DIIS:  cpu time   15.6746: real time   15.6763
    ORTHCH:  cpu time    0.9689: real time    0.9695
       DOS:  cpu time    0.0040: real time    0.0034
    CHARGE:  cpu time    0.9039: real time    0.9042
    MIXING:  cpu time    0.0050: real time    0.0055
    --------------------------------------------
      LOOP:  cpu time   22.6366: real time   22.6446

 eigenvalue-minimisations  :  9121
 total energy-change (2. order) :-0.9967818E+01  (-0.2424983E+01)
 number of electron     334.9999938 magnetization      29.6931557
 augmentation part       62.4233858 magnetization      23.7478102

 Broyden mixing:
  rms(total) = 0.37356E+01    rms(broyden)= 0.37343E+01
  rms(prec ) = 0.51936E+01
  weight for this iteration     100.00

 eigenvalues of (default mixing * dielectric matrix)
  average eigenvalue GAMMA=   0.6380
  2.0312  0.6216  0.5093  0.2638  0.2638  0.1382

 Free energy of the ion-electron system (eV)
  ---------------------------------------------------
  alpha Z        PSCENC =      1010.74268284
  Ewald energy   TEWEN  =     63361.79029010
  -Hartree energ DENC   =    -86515.48636283
  -exchange      EXHF   =         0.00000000
  -V(xc)+E(xc)   XCENC  =       651.28938187
  PAW double counting   =     30995.46524647   -30456.60782929
  entropy T*S    EENTRO =        -0.03012895
  eigenvalues    EBANDS =     -2039.12342636
  atomic energy  EATOM  =     22693.01075624
  Solvation  Ediel_sol  =         0.00000000
  ---------------------------------------------------
  free energy    TOTEN  =      -298.94938991 eV

  energy without entropy =     -298.91926096  energy(sigma->0) =     -298.93432544


--------------------------------------------------------------------------------------------------------




----------------------------------------- Iteration    1(  12)  ---------------------------------------


    POTLOK:  cpu time    0.2720: real time    0.2719
    SETDIJ:  cpu time    0.0250: real time    0.0252
    EDDIAG:  cpu time    4.7873: real time    4.7873
  RMM-DIIS:  cpu time   15.6966: real time   15.7004
    ORTHCH:  cpu time    0.9679: real time    0.9692
       DOS:  cpu time    0.0040: real time    0.0035
    CHARGE:  cpu time    0.9019: real time    0.9025
    MIXING:  cpu time    0.0060: real time    0.0057
    --------------------------------------------
      LOOP:  cpu time   22.6616: real time   22.6687

 eigenvalue-minimisations  :  9129
 total energy-change (2. order) : 0.6051056E+01  (-0.5622013E+00)
 number of electron     334.9999940 magnetization      28.5844000
 augmentation part       61.9297436 magnetization      22.5968900

 Broyden mixing:
  rms(total) = 0.23171E+01    rms(broyden)= 0.23153E+01
  rms(prec ) = 0.26945E+01
  weight for this iteration     100.00

 eigenvalues of (default mixing * dielectric matrix)
  average eigenvalue GAMMA=   0.5980
  2.0705  0.5726  0.5726  0.3076  0.3076  0.2196  0.1352

 Free energy of the ion-electron system (eV)
  ---------------------------------------------------
  alpha Z        PSCENC =      1010.74268284
  Ewald energy   TEWEN  =     63361.79029010
  -Hartree energ DENC   =    -86596.46497442
  -exchange      EXHF   =         0.00000000
  -V(xc)+E(xc)   XCENC  =       648.49174950
  PAW double counting   =     30960.81028918   -30422.78576772
  entropy T*S    EENTRO =        -0.02850312
  eigenvalues    EBANDS =     -1948.46485688
  atomic energy  EATOM  =     22693.01075624
  Solvation  Ediel_sol  =         0.00000000
  ---------------------------------------------------
  free energy    TOTEN  =      -292.89833429 eV

  energy without entropy =     -292.86983116  energy(sigma->0) =     -292.88408273


--------------------------------------------------------------------------------------------------------




----------------------------------------- Iteration    1(  13)  ---------------------------------------


    POTLOK:  cpu time    0.2710: real time    0.2715
    SETDIJ:  cpu time    0.0260: real time    0.0251
    EDDIAG:  cpu time    4.7803: real time    4.7810
  RMM-DIIS:  cpu time   15.6536: real time   15.6588
    ORTHCH:  cpu time    0.9709: real time    0.9708
       DOS:  cpu time    0.0040: real time    0.0035
    CHARGE:  cpu time    0.9039: real time    0.9037
    MIXING:  cpu time    0.0050: real time    0.0058
    --------------------------------------------
      LOOP:  cpu time   22.6156: real time   22.6233

 eigenvalue-minimisations  :  9120
 total energy-change (2. order) :-0.3735629E+00  (-0.1875347E+00)
 number of electron     334.9999941 magnetization      27.6334562
 augmentation part       61.8161634 magnetization      20.9528490

 Broyden mixing:
  rms(total) = 0.14462E+01    rms(broyden)= 0.14458E+01
  rms(prec ) = 0.15384E+01
  weight for this iteration     100.00

 eigenvalues of (default mixing * dielectric matrix)
  average eigenvalue GAMMA=   0.6068
  2.0060  0.7744  0.5714  0.5714  0.2836  0.2836  0.1359  0.2279

 Free energy of the ion-electron system (eV)
  ---------------------------------------------------
  alpha Z        PSCENC =      1010.74268284
  Ewald energy   TEWEN  =     63361.79029010
  -Hartree energ DENC   =    -86560.28737185
  -exchange      EXHF   =         0.00000000
  -V(xc)+E(xc)   XCENC  =       645.97625717
  PAW double counting   =     31093.45090139   -30556.29154903
  entropy T*S    EENTRO =        -0.02969897
  eigenvalues    EBANDS =     -1981.63416510
  atomic energy  EATOM  =     22693.01075624
  Solvation  Ediel_sol  =         0.00000000
  ---------------------------------------------------
  free energy    TOTEN  =      -293.27189721 eV

  energy without entropy =     -293.24219823  energy(sigma->0) =     -293.25704772


--------------------------------------------------------------------------------------------------------




----------------------------------------- Iteration    1(  14)  ---------------------------------------


    POTLOK:  cpu time    0.2710: real time    0.2716
    SETDIJ:  cpu time    0.0250: real time    0.0254
    EDDIAG:  cpu time    4.7823: real time    4.7830
  RMM-DIIS:  cpu time   15.6706: real time   15.6743
    ORTHCH:  cpu time    0.9699: real time    0.9702
       DOS:  cpu time    0.0040: real time    0.0035
    CHARGE:  cpu time    0.9019: real time    0.9033
    MIXING:  cpu time    0.0060: real time    0.0059
    --------------------------------------------
      LOOP:  cpu time   22.6326: real time   22.6405

 eigenvalue-minimisations  :  9130
 total energy-change (2. order) :-0.6591025E+01  (-0.2060676E+00)
 number of electron     334.9999939 magnetization      26.4012713
 augmentation part       61.7356463 magnetization      19.3430754

 Broyden mixing:
  rms(total) = 0.14089E+01    rms(broyden)= 0.14087E+01
  rms(prec ) = 0.15568E+01
  weight for this iteration     100.00

 eigenvalues of (default mixing * dielectric matrix)
  average eigenvalue GAMMA=   0.5843
  1.9980  0.7646  0.6454  0.6454  0.3006  0.3006  0.1358  0.2343  0.2343

 Free energy of the ion-electron system (eV)
  ---------------------------------------------------
  alpha Z        PSCENC =      1010.74268284
  Ewald energy   TEWEN  =     63361.79029010
  -Hartree energ DENC   =    -86522.24398438
  -exchange      EXHF   =         0.00000000
  -V(xc)+E(xc)   XCENC  =       641.84335459
  PAW double counting   =     30923.39144150   -30385.96288577
  entropy T*S    EENTRO =        -0.03504958
  eigenvalues    EBANDS =     -2022.39952732
  atomic energy  EATOM  =     22693.01075624
  Solvation  Ediel_sol  =         0.00000000
  ---------------------------------------------------
  free energy    TOTEN  =      -299.86292178 eV

  energy without entropy =     -299.82787220  energy(sigma->0) =     -299.84539699


--------------------------------------------------------------------------------------------------------




----------------------------------------- Iteration    1(  15)  ---------------------------------------


    POTLOK:  cpu time    0.2720: real time    0.2716
    SETDIJ:  cpu time    0.0250: real time    0.0252
    EDDIAG:  cpu time    4.7803: real time    4.7818
  RMM-DIIS:  cpu time   15.6616: real time   15.6665
    ORTHCH:  cpu time    0.9689: real time    0.9692
       DOS:  cpu time    0.0040: real time    0.0036
    CHARGE:  cpu time    0.9009: real time    0.9009
    MIXING:  cpu time    0.0060: real time    0.0061
    --------------------------------------------
      LOOP:  cpu time   22.6186: real time   22.6282

 eigenvalue-minimisations  :  9120
 total energy-change (2. order) :-0.6701427E+01  (-0.2394030E+00)
 number of electron     334.9999941 magnetization      23.9554259
 augmentation part       61.7327426 magnetization      17.9318676

 Broyden mixing:
  rms(total) = 0.10370E+01    rms(broyden)= 0.10367E+01
  rms(prec ) = 0.11052E+01
  weight for this iteration     100.00

 eigenvalues of (default mixing * dielectric matrix)
  average eigenvalue GAMMA=   0.6138
  1.7622  0.9363  0.9363  0.7981  0.4541  0.3051  0.3051  0.1358  0.2524  0.2524

 Free energy of the ion-electron system (eV)
  ---------------------------------------------------
  alpha Z        PSCENC =      1010.74268284
  Ewald energy   TEWEN  =     63361.79029010
  -Hartree energ DENC   =    -86526.89116493
  -exchange      EXHF   =         0.00000000
  -V(xc)+E(xc)   XCENC  =       637.78609048
  PAW double counting   =     30895.98074895   -30358.77138158
  entropy T*S    EENTRO =        -0.02564277
  eigenvalues    EBANDS =     -2020.18672828
  atomic energy  EATOM  =     22693.01075624
  Solvation  Ediel_sol  =         0.00000000
  ---------------------------------------------------
  free energy    TOTEN  =      -306.56434896 eV

  energy without entropy =     -306.53870618  energy(sigma->0) =     -306.55152757


--------------------------------------------------------------------------------------------------------




----------------------------------------- Iteration    1(  16)  ---------------------------------------


    POTLOK:  cpu time    0.2720: real time    0.2718
    SETDIJ:  cpu time    0.0250: real time    0.0252
    EDDIAG:  cpu time    4.7923: real time    4.7936
  RMM-DIIS:  cpu time   15.6506: real time   15.6554
    ORTHCH:  cpu time    0.9709: real time    0.9708
       DOS:  cpu time    0.0030: real time    0.0035
    CHARGE:  cpu time    0.9179: real time    0.9171
    MIXING:  cpu time    0.0060: real time    0.0064
    --------------------------------------------
      LOOP:  cpu time   22.6386: real time   22.6468

 eigenvalue-minimisations  :  9121
 total energy-change (2. order) :-0.8964401E+01  (-0.4767339E+00)
 number of electron     334.9999939 magnetization      20.1013968
 augmentation part       61.6588515 magnetization      13.7805583

 Broyden mixing:
  rms(total) = 0.10089E+01    rms(broyden)= 0.10088E+01
  rms(prec ) = 0.10888E+01
  weight for this iteration     100.00

 eigenvalues of (default mixing * dielectric matrix)
  average eigenvalue GAMMA=   0.6444
  1.6108  1.3071  1.3071  0.6951  0.5028  0.5028  0.2920  0.2920  0.1358  0.2211
  0.2211

 Free energy of the ion-electron system (eV)
  ---------------------------------------------------
  alpha Z        PSCENC =      1010.74268284
  Ewald energy   TEWEN  =     63361.79029010
  -Hartree energ DENC   =    -86481.02111144
  -exchange      EXHF   =         0.00000000
  -V(xc)+E(xc)   XCENC  =       632.58714459
  PAW double counting   =     30690.87862605   -30153.81583670
  entropy T*S    EENTRO =        -0.03366000
  eigenvalues    EBANDS =     -2069.66764180
  atomic energy  EATOM  =     22693.01075624
  Solvation  Ediel_sol  =         0.00000000
  ---------------------------------------------------
  free energy    TOTEN  =      -315.52875012 eV

  energy without entropy =     -315.49509012  energy(sigma->0) =     -315.51192012


--------------------------------------------------------------------------------------------------------




----------------------------------------- Iteration    1(  17)  ---------------------------------------


    POTLOK:  cpu time    0.2710: real time    0.2715
    SETDIJ:  cpu time    0.0260: real time    0.0251
    EDDIAG:  cpu time    4.7953: real time    4.7961
  RMM-DIIS:  cpu time   15.6536: real time   15.6586
    ORTHCH:  cpu time    0.9679: real time    0.9681
       DOS:  cpu time    0.0040: real time    0.0044
    CHARGE:  cpu time    0.9259: real time    0.9270
    MIXING:  cpu time    0.0070: real time    0.0066
    --------------------------------------------
      LOOP:  cpu time   22.6516: real time   22.6608

 eigenvalue-minimisations  :  9120
 total energy-change (2. order) :-0.9009626E+01  (-0.8657684E+00)
 number of electron     334.9999941 magnetization      17.4128747
 augmentation part       61.8193481 magnetization      12.0268566

 Broyden mixing:
  rms(total) = 0.95411E+00    rms(broyden)= 0.95399E+00
  rms(prec ) = 0.10532E+01
  weight for this iteration     100.00

 eigenvalues of (default mixing * dielectric matrix)
  average eigenvalue GAMMA=   0.6998
  1.9736  1.9736  0.8402  0.8402  0.6296  0.6296  0.2947  0.2947  0.3375  0.1358
  0.2243  0.2243

 Free energy of the ion-electron system (eV)
  ---------------------------------------------------
  alpha Z        PSCENC =      1010.74268284
  Ewald energy   TEWEN  =     63361.79029010
  -Hartree energ DENC   =    -86460.99292876
  -exchange      EXHF   =         0.00000000
  -V(xc)+E(xc)   XCENC  =       627.88776930
  PAW double counting   =     30660.03668244   -30123.76223082
  entropy T*S    EENTRO =        -0.03922630
  eigenvalues    EBANDS =     -2093.21217153
  atomic energy  EATOM  =     22693.01075624
  Solvation  Ediel_sol  =         0.00000000
  ---------------------------------------------------
  free energy    TOTEN  =      -324.53837650 eV

  energy without entropy =     -324.49915020  energy(sigma->0) =     -324.51876335


--------------------------------------------------------------------------------------------------------




----------------------------------------- Iteration    1(  18)  ---------------------------------------


    POTLOK:  cpu time    0.2710: real time    0.2717
    SETDIJ:  cpu time    0.0250: real time    0.0252
    EDDIAG:  cpu time    4.7953: real time    4.7951
  RMM-DIIS:  cpu time   15.6436: real time   15.6485
    ORTHCH:  cpu time    0.9689: real time    0.9687
       DOS:  cpu time    0.0040: real time    0.0042
    CHARGE:  cpu time    0.9219: real time    0.9230
    MIXING:  cpu time    0.0070: real time    0.0067
    --------------------------------------------
      LOOP:  cpu time   22.6376: real time   22.6461

 eigenvalue-minimisations  :  9125
 total energy-change (2. order) :-0.3401997E+01  (-0.3138469E+00)
 number of electron     334.9999941 magnetization      15.8444341
 augmentation part       61.7554680 magnetization      10.7571396

 Broyden mixing:
  rms(total) = 0.77406E+00    rms(broyden)= 0.77396E+00
  rms(prec ) = 0.87657E+00
  weight for this iteration     100.00

 eigenvalues of (default mixing * dielectric matrix)
  average eigenvalue GAMMA=   0.7198
  2.2459  2.2459  0.7563  0.7563  0.7230  0.7230  0.4820  0.2941  0.2941  0.1358
  0.2238  0.2238  0.2538

 Free energy of the ion-electron system (eV)
  ---------------------------------------------------
  alpha Z        PSCENC =      1010.74268284
  Ewald energy   TEWEN  =     63361.79029010
  -Hartree energ DENC   =    -86454.01502730
  -exchange      EXHF   =         0.00000000
  -V(xc)+E(xc)   XCENC  =       625.56397774
  PAW double counting   =     30678.89391371   -30143.30171814
  entropy T*S    EENTRO =        -0.03934319
  eigenvalues    EBANDS =     -2100.58590530
  atomic energy  EATOM  =     22693.01075624
  Solvation  Ediel_sol  =         0.00000000
  ---------------------------------------------------
  free energy    TOTEN  =      -327.94037331 eV

  energy without entropy =     -327.90103011  energy(sigma->0) =     -327.92070171


--------------------------------------------------------------------------------------------------------




----------------------------------------- Iteration    1(  19)  ---------------------------------------


    POTLOK:  cpu time    0.2710: real time    0.2716
    SETDIJ:  cpu time    0.0250: real time    0.0253
    EDDIAG:  cpu time    4.7963: real time    4.7978
  RMM-DIIS:  cpu time   15.6426: real time   15.6465
    ORTHCH:  cpu time    0.9858: real time    0.9862
       DOS:  cpu time    0.0040: real time    0.0042
    CHARGE:  cpu time    0.9789: real time    0.9785
    MIXING:  cpu time    0.0070: real time    0.0073
    --------------------------------------------
      LOOP:  cpu time   22.7105: real time   22.7204

 eigenvalue-minimisations  :  9124
 total energy-change (2. order) :-0.1054452E+01  (-0.7419590E-01)
 number of electron     334.9999941 magnetization      13.6739726
 augmentation part       61.8174978 magnetization       9.1531139

 Broyden mixing:
  rms(total) = 0.73541E+00    rms(broyden)= 0.73533E+00
  rms(prec ) = 0.76785E+00
  weight for this iteration     100.00

 eigenvalues of (default mixing * dielectric matrix)
  average eigenvalue GAMMA=   0.7842
  3.3802  1.9651  1.0117  1.0117  0.6693  0.5877  0.5877  0.2934  0.2934  0.3592
  0.1358  0.2314  0.2314  0.2211

 Free energy of the ion-electron system (eV)
  ---------------------------------------------------
  alpha Z        PSCENC =      1010.74268284
  Ewald energy   TEWEN  =     63361.79029010
  -Hartree energ DENC   =    -86447.59522918
  -exchange      EXHF   =         0.00000000
  -V(xc)+E(xc)   XCENC  =       624.47192186
  PAW double counting   =     30679.74126632   -30144.25181278
  entropy T*S    EENTRO =        -0.04145454
  eigenvalues    EBANDS =     -2106.86324589
  atomic energy  EATOM  =     22693.01075624
  Solvation  Ediel_sol  =         0.00000000
  ---------------------------------------------------
  free energy    TOTEN  =      -328.99482503 eV

  energy without entropy =     -328.95337049  energy(sigma->0) =     -328.97409776


--------------------------------------------------------------------------------------------------------




----------------------------------------- Iteration    1(  20)  ---------------------------------------


    POTLOK:  cpu time    0.2800: real time    0.2802
    SETDIJ:  cpu time    0.0270: real time    0.0261
    EDDIAG:  cpu time    4.8853: real time    4.8875
  RMM-DIIS:  cpu time   15.6636: real time   15.6682
    ORTHCH:  cpu time    0.9719: real time    0.9716
       DOS:  cpu time    0.0040: real time    0.0037
    CHARGE:  cpu time    0.9209: real time    0.9208
    MIXING:  cpu time    0.0070: real time    0.0071
    --------------------------------------------
      LOOP:  cpu time   22.7615: real time   22.7687

 eigenvalue-minimisations  :  9120
 total energy-change (2. order) :-0.7803123E+00  (-0.3318084E-01)
 number of electron     334.9999941 magnetization      12.1444434
 augmentation part       61.8244064 magnetization       7.9519209

 Broyden mixing:
  rms(total) = 0.65807E+00    rms(broyden)= 0.65802E+00
  rms(prec ) = 0.68355E+00
  weight for this iteration     100.00

 eigenvalues of (default mixing * dielectric matrix)
  average eigenvalue GAMMA=   0.8100
  3.8817  1.8412  1.1643  1.1643  0.5939  0.5939  0.6121  0.5370  0.2949  0.2949
  0.1358  0.3461  0.2230  0.2230  0.2437

 Free energy of the ion-electron system (eV)
  ---------------------------------------------------
  alpha Z        PSCENC =      1010.74268284
  Ewald energy   TEWEN  =     63361.79029010
  -Hartree energ DENC   =    -86444.03320012
  -exchange      EXHF   =         0.00000000
  -V(xc)+E(xc)   XCENC  =       623.49574481
  PAW double counting   =     30678.16557089   -30142.79753622
  entropy T*S    EENTRO =        -0.03710508
  eigenvalues    EBANDS =     -2110.11234075
  atomic energy  EATOM  =     22693.01075624
  Solvation  Ediel_sol  =         0.00000000
  ---------------------------------------------------
  free energy    TOTEN  =      -329.77513729 eV

  energy without entropy =     -329.73803221  energy(sigma->0) =     -329.75658475


--------------------------------------------------------------------------------------------------------




----------------------------------------- Iteration    1(  21)  ---------------------------------------


    POTLOK:  cpu time    0.2720: real time    0.2720
    SETDIJ:  cpu time    0.0250: real time    0.0252
    EDDIAG:  cpu time    4.8063: real time    4.8075
  RMM-DIIS:  cpu time   15.6276: real time   15.6344
    ORTHCH:  cpu time    0.9699: real time    0.9696
       DOS:  cpu time    0.0040: real time    0.0042
    CHARGE:  cpu time    0.9209: real time    0.9212
    MIXING:  cpu time    0.0080: real time    0.0075
    --------------------------------------------
      LOOP:  cpu time   22.6346: real time   22.6447

 eigenvalue-minimisations  :  9120
 total energy-change (2. order) :-0.3610570E+00  (-0.1287871E-01)
 number of electron     334.9999942 magnetization      10.2639357
 augmentation part       61.8509159 magnetization       6.7609847

 Broyden mixing:
  rms(total) = 0.66143E+00    rms(broyden)= 0.66139E+00
  rms(prec ) = 0.71180E+00
  weight for this iteration     100.00

 eigenvalues of (default mixing * dielectric matrix)
  average eigenvalue GAMMA=   0.8548
  4.4984  1.8265  1.3453  1.3453  0.6411  0.6411  0.6378  0.6378  0.3953  0.2938
  0.2938  0.1358  0.3028  0.2274  0.2274  0.2274

 Free energy of the ion-electron system (eV)
  ---------------------------------------------------
  alpha Z        PSCENC =      1010.74268284
  Ewald energy   TEWEN  =     63361.79029010
  -Hartree energ DENC   =    -86443.04670580
  -exchange      EXHF   =         0.00000000
  -V(xc)+E(xc)   XCENC  =       623.27260131
  PAW double counting   =     30746.07731930   -30210.86049269
  entropy T*S    EENTRO =        -0.04275026
  eigenvalues    EBANDS =     -2111.07989536
  atomic energy  EATOM  =     22693.01075624
  Solvation  Ediel_sol  =         0.00000000
  ---------------------------------------------------
  free energy    TOTEN  =      -330.13619433 eV

  energy without entropy =     -330.09344408  energy(sigma->0) =     -330.11481920


--------------------------------------------------------------------------------------------------------




----------------------------------------- Iteration    1(  22)  ---------------------------------------


    POTLOK:  cpu time    0.2710: real time    0.2713
    SETDIJ:  cpu time    0.0250: real time    0.0252
    EDDIAG:  cpu time    4.8073: real time    4.8071
  RMM-DIIS:  cpu time   15.6456: real time   15.6498
    ORTHCH:  cpu time    0.9659: real time    0.9669
       DOS:  cpu time    0.0050: real time    0.0050
    CHARGE:  cpu time    0.9239: real time    0.9243
    MIXING:  cpu time    0.0070: real time    0.0076
    --------------------------------------------
      LOOP:  cpu time   22.6526: real time   22.6638

 eigenvalue-minimisations  :  9120
 total energy-change (2. order) :-0.3155170E+00  (-0.7981653E-02)
 number of electron     334.9999942 magnetization       7.2637045
 augmentation part       61.8303781 magnetization       4.2149975

 Broyden mixing:
  rms(total) = 0.58190E+00    rms(broyden)= 0.58186E+00
  rms(prec ) = 0.66139E+00
  weight for this iteration     100.00

 eigenvalues of (default mixing * dielectric matrix)
  average eigenvalue GAMMA=   0.9167
  5.5248  1.8134  1.4329  1.4329  0.7555  0.7555  0.6345  0.5511  0.4915  0.4915
  0.2939  0.2939  0.1358  0.2903  0.2232  0.2232  0.2405

 Free energy of the ion-electron system (eV)
  ---------------------------------------------------
  alpha Z        PSCENC =      1010.74268284
  Ewald energy   TEWEN  =     63361.79029010
  -Hartree energ DENC   =    -86442.21875456
  -exchange      EXHF   =         0.00000000
  -V(xc)+E(xc)   XCENC  =       622.90515660
  PAW double counting   =     30746.86222484   -30211.56783163
  entropy T*S    EENTRO =        -0.04329989
  eigenvalues    EBANDS =     -2111.93293591
  atomic energy  EATOM  =     22693.01075624
  Solvation  Ediel_sol  =         0.00000000
  ---------------------------------------------------
  free energy    TOTEN  =      -330.45171137 eV

  energy without entropy =     -330.40841148  energy(sigma->0) =     -330.43006143


--------------------------------------------------------------------------------------------------------




----------------------------------------- Iteration    1(  23)  ---------------------------------------


    POTLOK:  cpu time    0.2720: real time    0.2715
    SETDIJ:  cpu time    0.0250: real time    0.0253
    EDDIAG:  cpu time    4.8083: real time    4.8086
  RMM-DIIS:  cpu time   15.6316: real time   15.6337
    ORTHCH:  cpu time    0.9689: real time    0.9689
       DOS:  cpu time    0.0040: real time    0.0040
    CHARGE:  cpu time    0.9209: real time    0.9219
    MIXING:  cpu time    0.0070: real time    0.0079
    --------------------------------------------
[...]
    209       6.7202      0.00000
    210       6.7202      0.00000
    211       6.9679      0.00000
    212       7.0038      0.00000
    213       8.2060      0.00000
    214       8.2382      0.00000
    215       8.2388      0.00000
    216       8.2714      0.00000
    217       8.5266      0.00000
    218       8.5409      0.00000
    219       8.5455      0.00000
    220       8.5898      0.00000
    221       9.0345      0.00000
    222       9.0529      0.00000
    223       9.1315      0.00000
    224       9.1441      0.00000
    225       9.2862      0.00000
    226       9.3122      0.00000
    227       9.3147      0.00000
    228       9.4701      0.00000


--------------------------------------------------------------------------------------------------------


 soft charge-density along one line, spin component           1
         0         1         2         3         4         5         6         7         8         9
 total charge-density along one line
 
 soft charge-density along one line, spin component           2
         0         1         2         3         4         5         6         7         8         9
 total charge-density along one line
 
 pseudopotential strength for first ion, spin component:           1
 12.799 -15.623   0.000  -0.068  -0.000  -0.000   0.085   0.000
-15.623  19.095  -0.000   0.086   0.000   0.000  -0.109  -0.000
  0.000  -0.000  -9.143  -0.000  -0.000  11.120  -0.000   0.000
 -0.068   0.086  -0.000  -9.158  -0.000  -0.000  11.140   0.000
 -0.000   0.000  -0.000  -0.000  -9.213   0.000   0.000  11.214
 -0.000   0.000  11.120  -0.000   0.000 -13.403   0.000  -0.000
  0.085  -0.109  -0.000  11.140   0.000   0.000 -13.430  -0.000
  0.000  -0.000   0.000   0.000  11.214  -0.000  -0.000 -13.530
 pseudopotential strength for first ion, spin component:           2
 12.804 -15.630   0.000  -0.068  -0.000  -0.000   0.085   0.000
-15.630  19.103  -0.000   0.086   0.000   0.000  -0.109  -0.000
  0.000  -0.000  -9.152  -0.000  -0.000  11.133   0.000   0.000
 -0.068   0.086  -0.000  -9.160   0.000   0.000  11.143  -0.000
 -0.000   0.000  -0.000   0.000  -9.215   0.000  -0.000  11.217
 -0.000   0.000  11.133   0.000   0.000 -13.421  -0.000  -0.000
  0.085  -0.109   0.000  11.143  -0.000  -0.000 -13.434   0.000
  0.000  -0.000   0.000  -0.000  11.217  -0.000   0.000 -13.535
 total augmentation occupancy for first ion, spin component:           1
  2.401   0.239  -0.000   0.159   0.000  -0.000   0.059   0.000
  0.239   0.057  -0.000   0.211   0.000  -0.000   0.028  -0.000
 -0.000  -0.000   1.790  -0.000  -0.000   0.122   0.000  -0.000
  0.159   0.211  -0.000   1.954   0.000   0.000   0.182  -0.000
  0.000   0.000  -0.000   0.000   1.913  -0.000  -0.000   0.236
 -0.000  -0.000   0.122   0.000  -0.000   0.014   0.000  -0.000
  0.059   0.028   0.000   0.182  -0.000   0.000   0.025  -0.000
  0.000  -0.000  -0.000  -0.000   0.236  -0.000  -0.000   0.033
 total augmentation occupancy for first ion, spin component:           2
  0.001   0.001   0.000   0.000   0.000  -0.000   0.000   0.000
  0.001   0.000   0.000   0.000  -0.000   0.000   0.000  -0.000
  0.000   0.000  -0.009  -0.000  -0.000   0.001   0.000   0.000
  0.000   0.000  -0.000   0.000   0.000   0.000   0.000  -0.000
  0.000  -0.000  -0.000   0.000  -0.000   0.000  -0.000   0.000
 -0.000   0.000   0.001   0.000   0.000   0.000   0.000   0.000
  0.000   0.000   0.000   0.000  -0.000   0.000   0.000  -0.000
  0.000  -0.000   0.000  -0.000   0.000   0.000  -0.000   0.000


------------------------ aborting loop because EDIFF is reached ----------------------------------------


    CHARGE:  cpu time    0.9119: real time    0.9119
    FORLOC:  cpu time    0.0320: real time    0.0324
    FORNL :  cpu time    6.5770: real time    6.5780
    STRESS:  cpu time   19.8340: real time   19.8381
    FORCOR:  cpu time    0.2930: real time    0.2941
    FORHAR:  cpu time    0.0550: real time    0.0554
    MIXING:  cpu time    0.0050: real time    0.0053
    OFIELD:  cpu time    0.0000: real time    0.0000

 ---------------------------------------------------------------------------------------------

         DFTD3 V3.0 Rev 1        
 Edisp (eV)   -9.74697

 E6    (eV) :    -5.8735
 E8    (eV) :    -3.8735
 % E8        : 39.74
    FORVDW:  cpu time    0.2480: real time    0.2489

  FORCE on cell =-STRESS in cart. coord.  units (eV):
  Direction    XX          YY          ZZ          XY          YZ          ZX
  --------------------------------------------------------------------------------------
  Alpha Z  1010.74268  1010.74268  1010.74268
  Ewald   79172.97688 76344.38141-92166.02672    -0.01858    -0.06576    -0.01207
  Hartree 84077.43423 82911.71240-80584.00156    -0.00410    -0.01295    -0.01045
  E(xc)   -1604.21733 -1609.46910 -1612.14438    -0.00002    -0.00170     0.00006
  Local  ************************167247.45743     0.02085     0.03182     0.01802
  n-local  -819.43320  -834.45584  -853.05338     0.01414    -0.00544    -0.00131
  augment   832.78883   850.27909   854.23170     0.00060     0.01225     0.00044
  Kinetic  5882.50581  6072.95701  6108.85797     0.00167     0.03477    -0.00499
  Fock        0.00000     0.00000     0.00000     0.00000     0.00000     0.00000
  vdW        -9.90601   -10.03100    -8.08334     0.00000    -0.00007     0.00000
  -------------------------------------------------------------------------------------
  Total     -10.10554    -4.80371    -2.01960     0.01455    -0.00709    -0.01031
  in kB     -18.10052    -8.60415    -3.61741     0.02607    -0.01269    -0.01846
  external pressure =      -10.11 kB  Pullay stress =        0.00 kB


 VOLUME and BASIS-vectors are now :
 -----------------------------------------------------------------------------
  energy-cutoff  :      500.00
  volume of cell :      894.50
      direct lattice vectors                 reciprocal lattice vectors
     6.362156930  0.000000000  0.000000000     0.157179399  0.000000000  0.000000000
     0.000000000  6.384482990  0.000000000     0.000000000  0.156629754  0.000000000
     0.000000000  0.000000000 22.021598410     0.000000000  0.000000000  0.045409964

  length of vectors
     6.362156930  6.384482990 22.021598410     0.157179399  0.156629754  0.045409964


 FORCES acting on ions
    electron-ion (+dipol)            ewald-force                    non-local-force                 convergence-correction
 -----------------------------------------------------------------------------------------------
   -.752E-02 0.354E-03 0.172E+04   0.851E-03 0.574E-04 -.175E+04   -.788E-03 -.652E-03 0.283E+02   0.552E-02 0.593E-05 0.479E-01
   0.767E-02 0.359E-03 0.172E+04   -.852E-03 0.573E-04 -.175E+04   0.766E-03 -.659E-03 0.283E+02   -.552E-02 0.552E-05 0.479E-01
   -.317E-03 0.511E+01 0.141E+04   0.989E-04 -.347E+01 -.141E+04   0.457E-02 -.166E+01 -.417E+00   0.148E-03 0.456E-01 0.274E+00
   0.135E-03 0.511E+01 0.141E+04   -.899E-04 -.347E+01 -.141E+04   0.460E-02 -.165E+01 -.425E+00   -.147E-03 0.402E-01 0.274E+00
   -.319E-03 -.511E+01 0.141E+04   0.981E-04 0.347E+01 -.141E+04   -.897E-04 0.166E+01 -.418E+00   0.147E-03 -.456E-01 0.274E+00
   0.133E-03 -.511E+01 0.141E+04   -.891E-04 0.347E+01 -.141E+04   -.533E-04 0.166E+01 -.426E+00   -.148E-03 -.402E-01 0.274E+00
   -.712E-02 -.186E-02 0.100E+04   0.417E-02 0.792E-03 -.100E+04   -.622E-02 0.135E-02 0.595E+00   0.566E-02 0.429E-05 0.471E+00
   0.736E-02 -.184E-02 0.100E+04   -.441E-02 0.789E-03 -.100E+04   0.534E-02 0.135E-02 0.595E+00   -.565E-02 0.607E-05 0.471E+00
   0.106E-01 0.158E-02 0.866E+03   -.843E-02 -.652E-03 -.864E+03   -.692E-02 0.118E-02 -.212E+01   -.109E-02 -.156E-04 0.528E+00
   -.106E-01 0.166E-02 0.866E+03   0.832E-02 -.672E-03 -.864E+03   0.584E-02 0.111E-02 -.212E+01   0.112E-02 -.151E-04 0.529E+00
   -.511E-02 0.346E+02 0.462E+03   0.521E-02 -.361E+02 -.462E+03   0.153E-02 0.151E+01 -.297E-01   -.195E-03 0.735E-02 0.359E+00
   -.228E-02 0.346E+02 0.462E+03   0.186E-02 -.361E+02 -.462E+03   0.167E-02 0.151E+01 -.745E-01   0.198E-03 0.876E-02 0.360E+00
   -.511E-02 -.346E+02 0.462E+03   0.518E-02 0.361E+02 -.462E+03   0.383E-02 -.150E+01 -.301E-01   -.195E-03 -.736E-02 0.359E+00
   -.235E-02 -.346E+02 0.462E+03   0.191E-02 0.361E+02 -.462E+03   0.394E-02 -.151E+01 -.753E-01   0.197E-03 -.879E-02 0.360E+00
   -.128E+00 -.276E-01 0.651E+02   0.102E+00 0.285E-01 -.622E+02   0.180E-01 0.117E-02 -.263E+01   0.582E-02 0.124E-03 0.251E+00
   0.129E+00 -.290E-01 0.650E+02   -.105E+00 0.299E-01 -.622E+02   -.148E-01 0.105E-02 -.263E+01   -.579E-02 0.123E-03 0.249E+00
   -.172E+00 0.930E-01 -.874E+02   0.196E+00 -.113E+00 0.857E+02   -.135E-01 0.186E-01 0.167E+01   -.114E-01 0.774E-03 0.765E-01
   0.169E+00 0.966E-01 -.874E+02   -.189E+00 -.117E+00 0.857E+02   0.133E-01 0.190E-01 0.167E+01   0.102E-01 0.759E-03 0.765E-01
   0.987E-03 -.302E+02 -.485E+03   -.340E-02 0.317E+02 0.485E+03   0.676E-02 -.142E+01 -.195E+00   -.198E-02 -.566E-01 -.164E+00
   0.310E-01 -.306E+02 -.486E+03   -.380E-01 0.321E+02 0.486E+03   0.773E-02 -.150E+01 -.278E+00   0.800E-03 -.267E-01 -.164E+00
   0.886E-02 0.301E+02 -.484E+03   -.118E-01 -.316E+02 0.485E+03   0.549E-02 0.143E+01 -.177E+00   -.202E-02 0.562E-01 -.162E+00
   0.203E-01 0.304E+02 -.485E+03   -.262E-01 -.320E+02 0.486E+03   0.572E-02 0.152E+01 -.259E+00   0.830E-03 0.262E-01 -.163E+00
   0.831E+00 -.470E-02 -.872E+03   -.812E+00 0.164E+00 0.870E+03   -.210E-01 -.152E+00 0.221E+01   -.250E-02 -.281E-02 -.366E+00
   -.808E+00 -.204E-02 -.872E+03   0.785E+00 0.169E+00 0.870E+03   0.280E-01 -.159E+00 0.221E+01   0.137E-02 -.343E-02 -.366E+00
   0.947E+01 -.952E-01 -.102E+04   -.130E+02 0.109E+00 0.102E+04   0.343E+01 -.146E-01 -.263E+01   0.996E-01 0.103E-03 -.394E+00
   -.949E+01 -.997E-01 -.102E+04   0.130E+02 0.114E+00 0.102E+04   -.343E+01 -.128E-01 -.263E+01   -.993E-01 -.339E-03 -.394E+00
   0.437E-02 -.143E+01 -.143E+04   -.478E-02 -.661E-01 0.143E+04   0.904E-03 0.154E+01 -.411E+01   -.122E-04 -.359E-01 -.249E+00
   0.175E-01 0.812E+01 -.143E+04   -.229E-01 -.134E+02 0.143E+04   0.798E-02 0.522E+01 -.387E+01   -.126E-02 0.208E-01 -.339E+00
   0.105E-01 0.142E+01 -.143E+04   -.137E-01 0.685E-01 0.143E+04   0.461E-02 -.153E+01 -.411E+01   0.196E-03 0.367E-01 -.250E+00
   0.162E-01 -.809E+01 -.143E+04   -.212E-01 0.133E+02 0.143E+04   0.661E-02 -.521E+01 -.388E+01   -.531E-04 -.200E-01 -.341E+00
   -.729E+01 -.861E-02 -.171E+04   0.783E+01 0.162E-01 0.174E+04   -.598E+00 -.736E-02 -.252E+02   0.836E-01 0.159E-03 -.987E-01
   0.727E+01 -.200E-01 -.171E+04   -.781E+01 0.330E-01 0.174E+04   0.592E+00 -.111E-01 -.252E+02   -.831E-01 -.719E-03 -.962E-01
   -.654E-01 0.227E-01 -.183E+04   0.620E-01 -.227E-01 0.183E+04   0.399E-02 -.790E-04 -.247E+01   -.158E-03 -.139E-02 -.388E+00
   -.157E-03 -.370E-03 0.206E+04   0.131E-03 0.284E-03 -.207E+04   -.106E-02 -.615E-03 0.146E+01   0.248E-03 0.111E-04 0.416E+00
   0.573E-03 -.425E-03 0.206E+04   -.102E-03 0.285E-03 -.207E+04   -.108E-02 -.519E-03 0.146E+01   -.254E-03 0.183E-04 0.416E+00
   -.289E-02 0.150E-03 0.221E+04   0.204E-02 -.247E-03 -.221E+04   -.103E-01 0.247E-03 -.260E+01   0.386E-02 -.149E-04 0.411E+00
   0.302E-02 0.153E-03 0.221E+04   -.205E-02 -.246E-03 -.221E+04   0.659E-02 0.245E-03 -.260E+01   -.386E-02 -.152E-04 0.411E+00
   -.346E-01 -.287E-01 0.693E+03   0.331E-01 0.285E-01 -.694E+03   0.141E-01 -.340E-03 0.752E-01   0.982E-03 0.397E-04 0.530E+00
   0.636E-01 -.288E-01 0.693E+03   -.610E-01 0.286E-01 -.694E+03   -.114E-01 -.369E-03 0.752E-01   -.102E-02 0.389E-04 0.529E+00
   -.383E-02 -.510E-02 0.695E+03   0.493E-02 0.515E-02 -.695E+03   -.375E-03 -.103E-02 -.741E+00   -.750E-03 -.131E-04 0.586E+00
   0.329E-02 -.499E-02 0.695E+03   -.443E-02 0.506E-02 -.695E+03   0.215E-03 -.965E-03 -.734E+00   0.761E-03 0.272E-04 0.582E+00
   -.176E-01 0.283E+00 -.715E+03   0.173E-01 -.281E+00 0.715E+03   0.856E-03 -.153E-02 0.542E+00   0.887E-03 -.459E-03 -.209E+00
   -.322E-01 0.285E+00 -.715E+03   0.330E-01 -.282E+00 0.714E+03   0.106E-02 -.165E-02 0.538E+00   0.100E-04 -.145E-03 -.195E+00
   -.538E+00 -.125E+00 -.725E+03   0.490E+00 0.122E+00 0.726E+03   0.189E-01 0.296E-02 -.452E+00   0.356E-01 0.554E-03 -.245E+00
   0.462E+00 -.135E+00 -.725E+03   -.414E+00 0.132E+00 0.726E+03   -.171E-01 0.352E-02 -.452E+00   -.345E-01 0.521E-03 -.243E+00
   -.151E+01 0.128E+00 -.216E+04   0.126E+01 -.127E+00 0.216E+04   0.188E+00 0.336E-03 0.325E+01   0.505E-01 -.101E-02 -.394E+00
   0.147E+01 0.150E+00 -.216E+04   -.121E+01 -.148E+00 0.216E+04   -.188E+00 -.575E-03 0.325E+01   -.500E-01 -.148E-02 -.394E+00
   0.103E+00 0.391E-01 -.205E+04   -.100E+00 -.400E-01 0.205E+04   -.112E-02 0.124E-02 -.125E+01   -.125E-02 0.269E-04 -.443E+00
 -----------------------------------------------------------------------------------------------
   -.259E-01 0.281E+00 0.161E+02   0.923E-13 -.450E-13 0.909E-12   0.706E-01 -.241E+00 -.192E+02   -.385E-02 -.801E-02 0.310E+01
 
 
 POSITION                                       TOTAL-FORCE (eV/Angst)
 -----------------------------------------------------------------------------------
      0.56693      2.26943      0.00000        -0.002791     -0.000901      0.615604
      3.74801      2.26943      0.00000         0.001216     -0.000903      0.615629
      2.15747      0.29962      1.22242         0.003646      0.032634     -0.641536
      5.33855      0.29962      1.22242         0.003649      0.031364     -0.642613
      2.15747      4.23923      1.22242        -0.001013     -0.030897     -0.642609
      5.33855      4.23923      1.22242        -0.001007     -0.029598     -0.643688
      0.56693      2.26943      2.44484        -0.004366     -0.000377      0.241361
      3.74801      2.26943      2.44484         0.001789     -0.000358      0.241378
      3.74801      5.46167      3.19225        -0.006686      0.001418     -0.131985
      0.56693      5.46167      3.19225         0.003777      0.001419     -0.132078
      2.15747      1.04699      4.41467         0.000590      0.023202     -0.035828
      5.33855      1.04699      4.41467         0.000603      0.026818     -0.042278
      2.15747      3.49187      4.41467         0.002855     -0.023223     -0.036211
      5.33855      3.49187      4.41467         0.002855     -0.026892     -0.042663
      0.56693      5.46167      5.63709        -0.002615      0.001467      0.505991
      3.74801      5.46167      5.63709         0.002029      0.001424      0.507442
      0.56721      2.26891      6.37615        -0.001936     -0.000905      0.003390
      3.74833      2.26890      6.37615         0.002309     -0.000838      0.003566
      2.15770      0.29810      7.62430         0.001514      0.000608      0.010664
      5.33878      0.29820      7.62349         0.000633     -0.000625     -0.007437
      2.15769      4.24069      7.62339        -0.000265     -0.000584      0.008852
      5.33877      4.24057      7.62258        -0.000266      0.000843     -0.008977
      0.56612      2.27170      8.80926        -0.004948      0.003640      0.026568
      3.74960      2.27181      8.80926         0.005560      0.003899      0.026733
      0.53942      5.46191      9.59971         0.046028     -0.001444     -0.005560
      3.77591      5.46191      9.60012        -0.044857      0.000442     -0.008416
      2.15766      1.05673     10.88026        -0.000370      0.003354     -0.024481
      5.33884      1.06151     10.89481         0.000514     -0.005966      0.038067
      2.15772      3.48187     10.88036         0.000708     -0.003780     -0.022834
      5.33882      3.47726     10.89504         0.000757      0.005415      0.039014
      0.53409      5.46181     12.00377         0.025950     -0.000302     -0.022199
      3.78119      5.46199     12.00307        -0.028698      0.000480     -0.017382
      5.33887      5.46153     10.90332        -0.000462     -0.002123      0.035894
      2.15747      2.26943      1.22242        -0.001686     -0.001357     -0.841518
      5.33855      2.26943      1.22242        -0.001713     -0.001308     -0.836024
      0.56693      5.46167      1.22242        -0.008172     -0.000532      1.494689
      3.74801      5.46167      1.22242         0.002852     -0.000530      1.494633
      0.56693      2.26943      4.41467         0.012762     -0.001190     -0.337804
      3.74801      2.26943      4.41467        -0.010701     -0.001214     -0.337791
      2.15747      5.46167      4.41467        -0.000877     -0.001654     -0.230406
      5.33855      5.46167      4.41467        -0.001007     -0.001540     -0.200843
      5.33885      2.26927      7.59651         0.000535      0.000208      0.008253
      2.15776      2.26928      7.59798         0.001067      0.000169      0.010201
      0.56629      5.46156      7.63030         0.004336      0.000286     -0.004795
      3.74895      5.46155      7.63046        -0.003995      0.000880     -0.004421
      0.56352      2.26916     10.75382        -0.020993      0.000234      0.012284
      3.75176      2.26916     10.75383         0.021515     -0.000780      0.012131
      2.15759      5.46150     10.83369        -0.000627     -0.000386     -0.049969
 -----------------------------------------------------------------------------------
    total drift:                                0.040762      0.031982      0.005505
  FORCES: max atom, RMS     0.049974    0.019272
  Number: max atom                48
  FORCE total and by dimension    0.133519    0.049969


--------------------------------------------------------------------------------------------------------



  FREE ENERGIE OF THE ION-ELECTRON SYSTEM (eV)
  ---------------------------------------------------
  free  energy   TOTEN  =      -340.99033231 eV

  energy  without entropy=     -340.95381481  energy(sigma->0) =     -340.97207356
 
 d Force = 0.8286044E-03[ 0.494E-03, 0.116E-02]  d Energy = 0.3299525E-03 0.499E-03
 d Force = 0.6101708E+01[ 0.611E+01, 0.610E+01]  d Ewald  = 0.6101707E+01 0.151E-05


--------------------------------------------------------------------------------------------------------


    POTLOK:  cpu time    0.3010: real time    0.3024


--------------------------------------------------------------------------------------------------------


 Conjugate gradient step on ions:
 trial-energy change:   -0.000330  1 .order   -0.000829   -0.001163   -0.000494
  (g-gl).g = 0.431E-03      g.g   = 0.442E-03  gl.gl    = 0.564E-03
 g(Force)  = 0.442E-03   g(Stress)= 0.000E+00 ortho     =-0.322E-04
 gamma     =   0.76349
 trial     =   2.78407
 opt step  =   4.84091  (harmonic =   4.84091) maximal distance =0.00726588
 next E    =  -340.991014   (d E  =  -0.00101)


--------------------------------------------------------------------------------------------------------


  
 reached required accuracy - stopping structural energy minimisation
     LOOP+:  cpu time  133.5057: real time  133.5595
    4ORBIT:  cpu time    0.0000: real time    0.0000

 total amount of memory used by VASP on root node   132558. kBytes
========================================================================

   base      :      30000. kBytes
   nonlr-proj:       9437. kBytes
   fftplans  :       6037. kBytes
   grid      :      15992. kBytes
   one-center:        248. kBytes
   wavefun   :      70844. kBytes
 
  
  
 General timing and accounting informations for this job:
 ========================================================
  
                  Total CPU time used (sec):     3226.312
                            User time (sec):     3222.557
                          System time (sec):        3.754
                         Elapsed time (sec):     3247.888
  
                   Maximum memory used (kb):      209716.
                   Average memory used (kb):           0.
  
                          Minor page faults:        80899
                          Major page faults:            0
                 Voluntary context switches:         4205
