  48  48   0   0
  0.1863536E+02  0.6362157E-09  0.6384483E-09  0.2202160E-08  0.1000000E-15
  1.000000000000000E-004
  CAR 
                                         
     11.77217258    -21.61675393  301      0.92611886      1.00000000
    -21.617  0.0000E+00  0.0000E+00  0.0000E+00  0.0000E+00
    -21.505  0.0000E+00  0.0000E+00  0.0000E+00  0.0000E+00
    -21.394  0.0000E+00  0.0000E+00  0.0000E+00  0.0000E+00
    -21.283  0.0000E+00  0.0000E+00  0.0000E+00  0.0000E+00
    -21.172  0.0000E+00  0.0000E+00  0.0000E+00  0.0000E+00
    -21.060  0.0000E+00  0.0000E+00  0.0000E+00  0.0000E+00
    -20.949  0.0000E+00  0.0000E+00  0.0000E+00  0.0000E+00
    -20.838  0.0000E+00  0.0000E+00  0.0000E+00  0.0000E+00
    -20.726  0.0000E+00  0.0000E+00  0.0000E+00  0.0000E+00
    -20.615  0.0000E+00  0.0000E+00  0.0000E+00  0.0000E+00
    -20.504  0.0000E+00  0.0000E+00  0.0000E+00  0.0000E+00
    -20.392  0.3117E-19  0.0000E+00  0.3469E-20  0.0000E+00
    -20.281  0.7268E-10  0.1927E-10  0.8090E-11  0.2144E-11
    -20.170  0.1268E-04  0.6922E-05  0.1411E-05  0.7704E-06
    -20.059  0.5016E-03  0.4633E-03  0.5724E-04  0.5233E-04
    -19.947  0.1763E-02  0.1624E-02  0.2535E-03  0.2331E-03
    -19.836  0.2154E-02  0.2092E-02  0.4933E-03  0.4659E-03
    -19.725  0.2080E-02  0.2080E-02  0.7247E-03  0.6975E-03
    -19.613  0.4242E-02  0.3974E-02  0.1197E-02  0.1140E-02
    -19.502  0.6105E-02  0.6265E-02  0.1876E-02  0.1837E-02
    -19.391  0.5332E-02  0.5272E-02  0.2470E-02  0.2424E-02
    -19.280  0.9805E-02  0.9626E-02  0.3561E-02  0.3495E-02
    -19.168  0.7068E-02  0.7091E-02  0.4348E-02  0.4284E-02
    -19.057  0.1258E-01  0.1207E-01  0.5747E-02  0.5628E-02
    -18.946  0.1416E-01  0.1425E-01  0.7324E-02  0.7214E-02
    -18.834  0.1815E-01  0.1756E-01  0.9344E-02  0.9168E-02
    -18.723  0.1971E-01  0.1998E-01  0.1154E-01  0.1139E-01
    -18.612  0.1788E-01  0.1703E-01  0.1353E-01  0.1329E-01
    -18.500  0.2375E-01  0.2350E-01  0.1617E-01  0.1590E-01
    -18.389  0.2882E-01  0.2959E-01  0.1938E-01  0.1919E-01
    -18.278  0.2593E-01  0.2577E-01  0.2226E-01  0.2206E-01
    -18.167  0.1919E-01  0.2018E-01  0.2440E-01  0.2431E-01
    -18.055  0.6162E-02  0.5905E-02  0.2509E-01  0.2497E-01
    -17.944  0.1114E-01  0.8324E-02  0.2633E-01  0.2589E-01
    -17.833  0.9736E-02  0.7618E-02  0.2741E-01  0.2674E-01
    -17.721  0.3532E-02  0.8418E-02  0.2780E-01  0.2768E-01
    -17.610  0.1623E-02  0.2557E-02  0.2798E-01  0.2796E-01
    -17.499  0.1585E-03  0.3418E-03  0.2800E-01  0.2800E-01
    -17.387  0.1386E-03  0.1185E-03  0.2802E-01  0.2801E-01
    -17.276  0.5840E-02  0.5666E-02  0.2867E-01  0.2864E-01
    -17.165  0.4752E-02  0.4622E-02  0.2919E-01  0.2916E-01
    -17.054  0.6271E-02  0.6321E-02  0.2989E-01  0.2986E-01
    -16.942  0.9670E-03  0.1242E-02  0.3000E-01  0.3000E-01
    -16.831  0.1301E-03  0.7424E-04  0.3001E-01  0.3001E-01
    -16.720  0.9325E-02  0.8148E-02  0.3105E-01  0.3091E-01
    -16.608  0.8374E-02  0.9517E-02  0.3198E-01  0.3197E-01
    -16.497  0.1422E-03  0.2320E-03  0.3200E-01  0.3200E-01
    -16.386  0.2219E-08  0.6742E-08  0.3200E-01  0.3200E-01
    -16.275  0.3242E-17  0.1951E-16  0.3200E-01  0.3200E-01
    -16.163  0.0000E+00  0.0000E+00  0.3200E-01  0.3200E-01
    -16.052  0.0000E+00  0.0000E+00  0.3200E-01  0.3200E-01
    -15.941  0.0000E+00  0.0000E+00  0.3200E-01  0.3200E-01
    -15.829  0.0000E+00  0.0000E+00  0.3200E-01  0.3200E-01
    -15.718  0.0000E+00  0.0000E+00  0.3200E-01  0.3200E-01
    -15.607  0.0000E+00  0.0000E+00  0.3200E-01  0.3200E-01
    -15.495  0.0000E+00  0.0000E+00  0.3200E-01  0.3200E-01
    -15.384  0.0000E+00  0.0000E+00  0.3200E-01  0.3200E-01
    -15.273  0.0000E+00  0.0000E+00  0.3200E-01  0.3200E-01
    -15.162  0.0000E+00  0.0000E+00  0.3200E-01  0.3200E-01
    -15.050  0.0000E+00  0.0000E+00  0.3200E-01  0.3200E-01
    -14.939  0.0000E+00  0.0000E+00  0.3200E-01  0.3200E-01
    -14.828  0.0000E+00  0.0000E+00  0.3200E-01  0.3200E-01
    -14.716  0.0000E+00  0.0000E+00  0.3200E-01  0.3200E-01
    -14.605  0.0000E+00  0.0000E+00  0.3200E-01  0.3200E-01
    -14.494  0.0000E+00  0.0000E+00  0.3200E-01  0.3200E-01
    -14.382  0.0000E+00  0.0000E+00  0.3200E-01  0.3200E-01
    -14.271  0.0000E+00  0.0000E+00  0.3200E-01  0.3200E-01
    -14.160  0.0000E+00  0.0000E+00  0.3200E-01  0.3200E-01
    -14.049  0.0000E+00  0.0000E+00  0.3200E-01  0.3200E-01
    -13.937  0.0000E+00  0.0000E+00  0.3200E-01  0.3200E-01
    -13.826  0.0000E+00  0.0000E+00  0.3200E-01  0.3200E-01
    -13.715  0.0000E+00  0.0000E+00  0.3200E-01  0.3200E-01
    -13.603  0.0000E+00  0.0000E+00  0.3200E-01  0.3200E-01
    -13.492  0.0000E+00  0.0000E+00  0.3200E-01  0.3200E-01
    -13.381  0.0000E+00  0.0000E+00  0.3200E-01  0.3200E-01
    -13.270  0.0000E+00  0.0000E+00  0.3200E-01  0.3200E-01
    -13.158  0.0000E+00  0.0000E+00  0.3200E-01  0.3200E-01
    -13.047  0.0000E+00  0.0000E+00  0.3200E-01  0.3200E-01
    -12.936  0.0000E+00  0.0000E+00  0.3200E-01  0.3200E-01
    -12.824  0.0000E+00  0.0000E+00  0.3200E-01  0.3200E-01
    -12.713  0.0000E+00  0.0000E+00  0.3200E-01  0.3200E-01
    -12.602  0.0000E+00  0.0000E+00  0.3200E-01  0.3200E-01
    -12.490  0.0000E+00  0.0000E+00  0.3200E-01  0.3200E-01
    -12.379  0.0000E+00  0.0000E+00  0.3200E-01  0.3200E-01
    -12.268  0.0000E+00  0.0000E+00  0.3200E-01  0.3200E-01
    -12.157  0.0000E+00  0.0000E+00  0.3200E-01  0.3200E-01
    -12.045  0.0000E+00  0.0000E+00  0.3200E-01  0.3200E-01
    -11.934  0.0000E+00  0.0000E+00  0.3200E-01  0.3200E-01
    -11.823  0.0000E+00  0.0000E+00  0.3200E-01  0.3200E-01
    -11.711  0.0000E+00  0.0000E+00  0.3200E-01  0.3200E-01
    -11.600  0.0000E+00  0.0000E+00  0.3200E-01  0.3200E-01
    -11.489  0.0000E+00  0.0000E+00  0.3200E-01  0.3200E-01
    -11.377  0.0000E+00  0.0000E+00  0.3200E-01  0.3200E-01
    -11.266  0.0000E+00  0.0000E+00  0.3200E-01  0.3200E-01
    -11.155  0.0000E+00  0.0000E+00  0.3200E-01  0.3200E-01
    -11.044  0.0000E+00  0.0000E+00  0.3200E-01  0.3200E-01
    -10.932  0.0000E+00  0.0000E+00  0.3200E-01  0.3200E-01
    -10.821  0.0000E+00  0.0000E+00  0.3200E-01  0.3200E-01
    -10.710  0.0000E+00  0.0000E+00  0.3200E-01  0.3200E-01
    -10.598  0.0000E+00  0.0000E+00  0.3200E-01  0.3200E-01
    -10.487  0.0000E+00  0.0000E+00  0.3200E-01  0.3200E-01
    -10.376  0.0000E+00  0.0000E+00  0.3200E-01  0.3200E-01
    -10.265  0.0000E+00  0.0000E+00  0.3200E-01  0.3200E-01
    -10.153  0.0000E+00  0.0000E+00  0.3200E-01  0.3200E-01
    -10.042  0.0000E+00  0.0000E+00  0.3200E-01  0.3200E-01
     -9.931  0.0000E+00  0.0000E+00  0.3200E-01  0.3200E-01
     -9.819  0.0000E+00  0.0000E+00  0.3200E-01  0.3200E-01
     -9.708  0.0000E+00  0.0000E+00  0.3200E-01  0.3200E-01
     -9.597  0.0000E+00  0.0000E+00  0.3200E-01  0.3200E-01
     -9.485  0.0000E+00  0.0000E+00  0.3200E-01  0.3200E-01
     -9.374  0.0000E+00  0.0000E+00  0.3200E-01  0.3200E-01
     -9.263  0.0000E+00  0.0000E+00  0.3200E-01  0.3200E-01
     -9.152  0.0000E+00  0.0000E+00  0.3200E-01  0.3200E-01
     -9.040  0.0000E+00  0.0000E+00  0.3200E-01  0.3200E-01
     -8.929  0.8354E-13  0.4158E-13  0.3200E-01  0.3200E-01
     -8.818  0.5180E-06  0.3516E-06  0.3200E-01  0.3200E-01
     -8.706  0.4496E-03  0.4017E-03  0.3205E-01  0.3204E-01
     -8.595  0.9967E-03  0.1025E-02  0.3216E-01  0.3216E-01
     -8.484  0.2195E-02  0.2146E-02  0.3241E-01  0.3240E-01
     -8.372  0.1327E-02  0.1387E-02  0.3255E-01  0.3255E-01
     -8.261  0.1398E-02  0.1199E-02  0.3271E-01  0.3269E-01
     -8.150  0.4774E-02  0.4370E-02  0.3324E-01  0.3317E-01
     -8.039  0.1151E-01  0.1066E-01  0.3452E-01  0.3436E-01
     -7.927  0.8759E-02  0.9969E-02  0.3550E-01  0.3547E-01
     -7.816  0.2287E-02  0.2516E-02  0.3575E-01  0.3575E-01
     -7.705  0.2728E-02  0.2231E-02  0.3605E-01  0.3600E-01
     -7.593  0.1131E-01  0.1098E-01  0.3731E-01  0.3722E-01
     -7.482  0.6985E-02  0.7391E-02  0.3809E-01  0.3804E-01
     -7.371  0.1069E-01  0.1023E-01  0.3928E-01  0.3918E-01
     -7.260  0.1302E-01  0.1301E-01  0.4073E-01  0.4063E-01
     -7.148  0.9506E-02  0.9730E-02  0.4179E-01  0.4171E-01
     -7.037  0.2026E-01  0.1921E-01  0.4404E-01  0.4385E-01
     -6.926  0.3303E-01  0.3200E-01  0.4772E-01  0.4741E-01
     -6.814  0.3191E-01  0.3279E-01  0.5127E-01  0.5106E-01
     -6.703  0.2118E-01  0.2136E-01  0.5363E-01  0.5343E-01
     -6.592  0.1651E-01  0.1727E-01  0.5546E-01  0.5536E-01
     -6.480  0.1309E-01  0.1283E-01  0.5692E-01  0.5679E-01
     -6.369  0.1586E-01  0.1555E-01  0.5869E-01  0.5852E-01
     -6.258  0.1232E-01  0.1222E-01  0.6006E-01  0.5988E-01
     -6.147  0.1368E-01  0.1361E-01  0.6158E-01  0.6139E-01
     -6.035  0.1826E-01  0.1610E-01  0.6361E-01  0.6318E-01
     -5.924  0.1163E-01  0.1401E-01  0.6491E-01  0.6474E-01
     -5.813  0.9794E-02  0.9730E-02  0.6600E-01  0.6582E-01
     -5.701  0.1428E-01  0.1367E-01  0.6759E-01  0.6735E-01
     -5.590  0.1548E-01  0.1636E-01  0.6931E-01  0.6917E-01
     -5.479  0.8298E-02  0.8522E-02  0.7023E-01  0.7012E-01
     -5.367  0.1303E-01  0.1260E-01  0.7168E-01  0.7152E-01
     -5.256  0.1256E-01  0.1237E-01  0.7308E-01  0.7290E-01
     -5.145  0.1017E-01  0.1073E-01  0.7421E-01  0.7409E-01
     -5.034  0.1275E-01  0.1260E-01  0.7563E-01  0.7549E-01
     -4.922  0.1135E-01  0.1102E-01  0.7690E-01  0.7672E-01
     -4.811  0.1681E-01  0.1701E-01  0.7877E-01  0.7861E-01
     -4.700  0.1681E-01  0.1633E-01  0.8064E-01  0.8043E-01
     -4.588  0.1880E-01  0.1883E-01  0.8273E-01  0.8252E-01
     -4.477  0.1895E-01  0.1888E-01  0.8484E-01  0.8462E-01
     -4.366  0.1534E-01  0.1499E-01  0.8655E-01  0.8629E-01
     -4.255  0.2124E-01  0.2025E-01  0.8891E-01  0.8855E-01
     -4.143  0.2250E-01  0.2125E-01  0.9141E-01  0.9091E-01
     -4.032  0.2220E-01  0.2340E-01  0.9388E-01  0.9352E-01
     -3.921  0.1897E-01  0.1930E-01  0.9599E-01  0.9566E-01
     -3.809  0.1824E-01  0.1844E-01  0.9802E-01  0.9772E-01
     -3.698  0.1769E-01  0.1773E-01  0.9999E-01  0.9969E-01
     -3.587  0.1632E-01  0.1697E-01  0.1018E+00  0.1016E+00
     -3.475  0.1747E-01  0.1720E-01  0.1038E+00  0.1035E+00
     -3.364  0.1525E-01  0.1563E-01  0.1055E+00  0.1052E+00
     -3.253  0.1330E-01  0.1353E-01  0.1069E+00  0.1067E+00
     -3.142  0.1402E-01  0.1308E-01  0.1085E+00  0.1082E+00
     -3.030  0.1381E-01  0.1485E-01  0.1100E+00  0.1098E+00
     -2.919  0.1127E-01  0.1096E-01  0.1113E+00  0.1111E+00
     -2.808  0.1783E-01  0.1766E-01  0.1133E+00  0.1130E+00
     -2.696  0.1168E-01  0.1191E-01  0.1146E+00  0.1144E+00
     -2.585  0.1369E-01  0.1390E-01  0.1161E+00  0.1159E+00
     -2.474  0.1169E-01  0.1148E-01  0.1174E+00  0.1172E+00
     -2.362  0.1398E-01  0.1378E-01  0.1189E+00  0.1187E+00
     -2.251  0.1245E-01  0.1281E-01  0.1203E+00  0.1201E+00
     -2.140  0.1222E-01  0.1219E-01  0.1217E+00  0.1215E+00
     -2.029  0.1132E-01  0.1134E-01  0.1230E+00  0.1228E+00
     -1.917  0.1772E-01  0.1720E-01  0.1249E+00  0.1247E+00
     -1.806  0.8817E-02  0.9606E-02  0.1259E+00  0.1257E+00
     -1.695  0.1114E-01  0.1085E-01  0.1271E+00  0.1270E+00
     -1.583  0.6911E-02  0.6833E-02  0.1279E+00  0.1277E+00
     -1.472  0.7788E-02  0.7279E-02  0.1288E+00  0.1285E+00
     -1.361  0.1389E-01  0.1111E-01  0.1303E+00  0.1298E+00
     -1.250  0.1220E-01  0.1412E-01  0.1317E+00  0.1313E+00
     -1.138  0.1423E-01  0.1411E-01  0.1333E+00  0.1329E+00
     -1.027  0.1895E-01  0.1720E-01  0.1354E+00  0.1348E+00
     -0.916  0.2443E-01  0.2378E-01  0.1381E+00  0.1375E+00
     -0.804  0.3169E-01  0.2998E-01  0.1416E+00  0.1408E+00
     -0.693  0.2450E-01  0.2688E-01  0.1444E+00  0.1438E+00
     -0.582  0.2247E-01  0.2446E-01  0.1469E+00  0.1465E+00
     -0.470  0.2298E-01  0.2156E-01  0.1494E+00  0.1489E+00
     -0.359  0.2012E-01  0.2120E-01  0.1516E+00  0.1513E+00
     -0.248  0.1311E-01  0.1397E-01  0.1531E+00  0.1528E+00
     -0.137  0.1342E-01  0.1313E-01  0.1546E+00  0.1543E+00
     -0.025  0.1340E-01  0.1400E-01  0.1561E+00  0.1558E+00
      0.086  0.1382E-01  0.1379E-01  0.1576E+00  0.1574E+00
      0.197  0.1284E-01  0.1177E-01  0.1591E+00  0.1587E+00
      0.309  0.9997E-02  0.1149E-01  0.1602E+00  0.1600E+00
      0.420  0.1142E-01  0.1048E-01  0.1614E+00  0.1611E+00
      0.531  0.1381E-01  0.1321E-01  0.1630E+00  0.1626E+00
      0.643  0.1375E-01  0.1236E-01  0.1645E+00  0.1640E+00
      0.754  0.1511E-01  0.1384E-01  0.1662E+00  0.1655E+00
      0.865  0.1583E-01  0.1480E-01  0.1680E+00  0.1672E+00
      0.976  0.1461E-01  0.1561E-01  0.1696E+00  0.1689E+00
      1.088  0.1469E-01  0.1690E-01  0.1712E+00  0.1708E+00
      1.199  0.1185E-01  0.1276E-01  0.1725E+00  0.1722E+00
      1.310  0.1517E-01  0.1512E-01  0.1742E+00  0.1739E+00
      1.422  0.1298E-01  0.1259E-01  0.1757E+00  0.1753E+00
      1.533  0.9324E-02  0.1112E-01  0.1767E+00  0.1765E+00
      1.644  0.1189E-01  0.9982E-02  0.1780E+00  0.1776E+00
      1.755  0.1020E-01  0.1158E-01  0.1792E+00  0.1789E+00
      1.867  0.5652E-02  0.5667E-02  0.1798E+00  0.1796E+00
      1.978  0.7897E-02  0.8007E-02  0.1807E+00  0.1805E+00
      2.089  0.5660E-02  0.6247E-02  0.1813E+00  0.1811E+00
      2.201  0.5988E-02  0.6828E-02  0.1820E+00  0.1819E+00
      2.312  0.4756E-02  0.3934E-02  0.1825E+00  0.1823E+00
      2.423  0.3369E-02  0.4427E-02  0.1829E+00  0.1828E+00
      2.535  0.3613E-02  0.3168E-02  0.1833E+00  0.1832E+00
      2.646  0.5094E-02  0.5306E-02  0.1838E+00  0.1838E+00
      2.757  0.4448E-02  0.4114E-02  0.1843E+00  0.1842E+00
      2.868  0.7878E-02  0.7512E-02  0.1852E+00  0.1851E+00
      2.980  0.7842E-02  0.8043E-02  0.1861E+00  0.1860E+00
      3.091  0.8348E-02  0.8677E-02  0.1870E+00  0.1869E+00
      3.202  0.6094E-02  0.5836E-02  0.1877E+00  0.1876E+00
      3.314  0.9920E-02  0.1008E-01  0.1888E+00  0.1887E+00
      3.425  0.5613E-02  0.5787E-02  0.1894E+00  0.1894E+00
      3.536  0.6490E-02  0.6307E-02  0.1901E+00  0.1901E+00
      3.648  0.7980E-02  0.7565E-02  0.1910E+00  0.1909E+00
      3.759  0.6978E-02  0.7793E-02  0.1918E+00  0.1918E+00
      3.870  0.5543E-02  0.5238E-02  0.1924E+00  0.1923E+00
      3.981  0.8970E-02  0.8519E-02  0.1934E+00  0.1933E+00
      4.093  0.9553E-02  0.9690E-02  0.1945E+00  0.1944E+00
      4.204  0.8262E-02  0.8564E-02  0.1954E+00  0.1953E+00
      4.315  0.1024E-01  0.9851E-02  0.1965E+00  0.1964E+00
      4.427  0.8843E-02  0.8763E-02  0.1975E+00  0.1974E+00
      4.538  0.1123E-01  0.1105E-01  0.1988E+00  0.1986E+00
      4.649  0.9861E-02  0.1061E-01  0.1999E+00  0.1998E+00
      4.760  0.8771E-02  0.8140E-02  0.2009E+00  0.2007E+00
      4.872  0.1137E-01  0.1118E-01  0.2021E+00  0.2020E+00
      4.983  0.1203E-01  0.1268E-01  0.2035E+00  0.2034E+00
      5.094  0.6674E-02  0.6876E-02  0.2042E+00  0.2041E+00
      5.206  0.4287E-02  0.4545E-02  0.2047E+00  0.2046E+00
      5.317  0.7076E-02  0.6600E-02  0.2055E+00  0.2054E+00
      5.428  0.7566E-02  0.7894E-02  0.2063E+00  0.2063E+00
      5.540  0.3746E-02  0.3902E-02  0.2067E+00  0.2067E+00
      5.651  0.3825E-02  0.3835E-02  0.2072E+00  0.2071E+00
      5.762  0.2178E-02  0.2136E-02  0.2074E+00  0.2074E+00
      5.873  0.3380E-02  0.3410E-02  0.2078E+00  0.2077E+00
      5.985  0.4083E-02  0.3653E-02  0.2082E+00  0.2081E+00
      6.096  0.4470E-02  0.4618E-02  0.2087E+00  0.2087E+00
      6.207  0.3999E-02  0.4105E-02  0.2092E+00  0.2091E+00
      6.319  0.2395E-02  0.2736E-02  0.2094E+00  0.2094E+00
      6.430  0.1674E-02  0.1140E-02  0.2096E+00  0.2095E+00
      6.541  0.4870E-02  0.4578E-02  0.2102E+00  0.2101E+00
      6.653  0.1585E-02  0.2347E-02  0.2103E+00  0.2103E+00
      6.764  0.2970E-02  0.2011E-02  0.2107E+00  0.2105E+00
      6.875  0.1300E-02  0.2329E-02  0.2108E+00  0.2108E+00
      6.986  0.1532E-02  0.1145E-02  0.2110E+00  0.2109E+00
      7.098  0.1139E-02  0.1505E-02  0.2111E+00  0.2111E+00
      7.209  0.8959E-03  0.9191E-03  0.2112E+00  0.2112E+00
      7.320  0.3400E-02  0.2878E-02  0.2116E+00  0.2115E+00
      7.432  0.7935E-02  0.7338E-02  0.2125E+00  0.2123E+00
      7.543  0.3580E-02  0.4264E-02  0.2129E+00  0.2128E+00
      7.654  0.4830E-02  0.3871E-02  0.2134E+00  0.2132E+00
      7.766  0.3249E-02  0.4610E-02  0.2138E+00  0.2137E+00
      7.877  0.1973E-02  0.1530E-02  0.2140E+00  0.2139E+00
      7.988  0.4871E-02  0.3813E-02  0.2145E+00  0.2143E+00
      8.099  0.4887E-02  0.5541E-02  0.2151E+00  0.2150E+00
      8.211  0.5279E-02  0.4834E-02  0.2157E+00  0.2155E+00
      8.322  0.5393E-02  0.5777E-02  0.2163E+00  0.2161E+00
      8.433  0.5322E-02  0.5913E-02  0.2169E+00  0.2168E+00
      8.545  0.3778E-02  0.3257E-02  0.2173E+00  0.2172E+00
      8.656  0.3708E-02  0.4355E-02  0.2177E+00  0.2176E+00
      8.767  0.4370E-02  0.4159E-02  0.2182E+00  0.2181E+00
      8.878  0.5227E-02  0.4561E-02  0.2188E+00  0.2186E+00
      8.990  0.7165E-02  0.7203E-02  0.2196E+00  0.2194E+00
      9.101  0.7471E-02  0.7308E-02  0.2204E+00  0.2202E+00
      9.212  0.9914E-02  0.9394E-02  0.2215E+00  0.2213E+00
      9.324  0.7939E-02  0.9278E-02  0.2224E+00  0.2223E+00
      9.435  0.6605E-02  0.6341E-02  0.2231E+00  0.2230E+00
      9.546  0.8806E-02  0.8293E-02  0.2241E+00  0.2239E+00
      9.658  0.1174E-01  0.1251E-01  0.2254E+00  0.2253E+00
      9.769  0.5132E-02  0.5058E-02  0.2260E+00  0.2259E+00
      9.880  0.5076E-02  0.4756E-02  0.2265E+00  0.2264E+00
      9.991  0.6548E-02  0.6586E-02  0.2273E+00  0.2272E+00
     10.103  0.3471E-02  0.4190E-02  0.2276E+00  0.2276E+00
     10.214  0.2346E-02  0.2128E-02  0.2279E+00  0.2279E+00
     10.325  0.8386E-03  0.1241E-02  0.2280E+00  0.2280E+00
     10.437  0.3793E-05  0.2245E-04  0.2280E+00  0.2280E+00
     10.548  0.4410E-11  0.1098E-09  0.2280E+00  0.2280E+00
     10.659  0.0000E+00  0.0000E+00  0.2280E+00  0.2280E+00
     10.771  0.0000E+00  0.0000E+00  0.2280E+00  0.2280E+00
     10.882  0.0000E+00  0.0000E+00  0.2280E+00  0.2280E+00
     10.993  0.0000E+00  0.0000E+00  0.2280E+00  0.2280E+00
     11.104  0.0000E+00  0.0000E+00  0.2280E+00  0.2280E+00
     11.216  0.0000E+00  0.0000E+00  0.2280E+00  0.2280E+00
     11.327  0.0000E+00  0.0000E+00  0.2280E+00  0.2280E+00
     11.438  0.0000E+00  0.0000E+00  0.2280E+00  0.2280E+00
     11.550  0.0000E+00  0.0000E+00  0.2280E+00  0.2280E+00
     11.661  0.0000E+00  0.0000E+00  0.2280E+00  0.2280E+00
     11.772  0.0000E+00  0.0000E+00  0.2280E+00  0.2280E+00
