       N       E                     dE             d eps       ncg     rms          rms(c)
DAV:   1     0.353047956754E+04    0.35305E+04   -0.15585E+05  9128   0.133E+03
DAV:   2     0.137990846617E+03   -0.33925E+04   -0.30989E+04  9560   0.379E+02
DAV:   3    -0.359510274132E+03   -0.49750E+03   -0.47379E+03 11224   0.158E+02
DAV:   4    -0.381878360771E+03   -0.22368E+02   -0.21978E+02 11376   0.362E+01
DAV:   5    -0.382448049745E+03   -0.56969E+00   -0.56768E+00 11344   0.555E+00    0.133E+02
RMM:   6    -0.290488287818E+03    0.91960E+02   -0.38486E+02  9143   0.387E+01    0.734E+01
RMM:   7    -0.390129067898E+03   -0.99641E+02   -0.83220E+01  9156   0.170E+01    0.174E+02
RMM:   8    -0.310310750471E+03    0.79818E+02   -0.84109E+00  9123   0.726E+00    0.637E+01
RMM:   9    -0.289785672193E+03    0.20525E+02   -0.38283E+01  9120   0.115E+01    0.418E+01
RMM:  10    -0.295584681361E+03   -0.57990E+01   -0.20667E+01  9129   0.868E+00    0.511E+01
RMM:  11    -0.285564036505E+03    0.10021E+02   -0.35401E+00  9127   0.444E+00    0.258E+01
RMM:  12    -0.288646902744E+03   -0.30829E+01   -0.24033E+00  9121   0.311E+00    0.167E+01
RMM:  13    -0.290607987335E+03   -0.19611E+01   -0.15161E+00  9122   0.248E+00    0.180E+01
RMM:  14    -0.294339314550E+03   -0.37313E+01   -0.11917E+00  9120   0.234E+00    0.133E+01
RMM:  15    -0.305129286758E+03   -0.10790E+02   -0.46045E+00  9120   0.409E+00    0.118E+01
RMM:  16    -0.313544778840E+03   -0.84155E+01   -0.55103E+00  9121   0.411E+00    0.113E+01
RMM:  17    -0.319930509758E+03   -0.63857E+01   -0.57522E+00  9120   0.400E+00    0.873E+00
RMM:  18    -0.322655626494E+03   -0.27251E+01   -0.23175E+00  9125   0.251E+00    0.895E+00
RMM:  19    -0.323060026400E+03   -0.40440E+00   -0.34564E-01  9123   0.113E+00    0.692E+00
RMM:  20    -0.323755241188E+03   -0.69521E+00   -0.25693E-01  9120   0.915E-01    0.773E+00
RMM:  21    -0.324265064271E+03   -0.50982E+00   -0.18696E-01  9120   0.762E-01    0.621E+00
RMM:  22    -0.324740483049E+03   -0.47542E+00   -0.20409E-01  9120   0.826E-01    0.415E+00
RMM:  23    -0.325118586042E+03   -0.37810E+00   -0.14844E-01  9122   0.699E-01    0.338E+00
RMM:  24    -0.325274713602E+03   -0.15613E+00   -0.96006E-02  9130   0.562E-01    0.304E+00
RMM:  25    -0.325342751317E+03   -0.68038E-01   -0.37105E-02  9152   0.355E-01    0.236E+00
RMM:  26    -0.325413520713E+03   -0.70769E-01   -0.21815E-02  9142   0.262E-01    0.165E+00
RMM:  27    -0.325452297068E+03   -0.38776E-01   -0.78372E-03  9165   0.168E-01    0.124E+00
RMM:  28    -0.325500887962E+03   -0.48591E-01   -0.67949E-03  9123   0.148E-01    0.953E-01
RMM:  29    -0.325532783642E+03   -0.31896E-01   -0.40114E-03  9092   0.111E-01    0.541E-01
RMM:  30    -0.325549870121E+03   -0.17086E-01   -0.19357E-03  8510   0.785E-02    0.356E-01
RMM:  31    -0.325554459200E+03   -0.45891E-02   -0.68703E-04  7390   0.467E-02    0.292E-01
RMM:  32    -0.325556521942E+03   -0.20627E-02   -0.65873E-04  7141   0.434E-02    0.194E-01
RMM:  33    -0.325555839107E+03    0.68284E-03   -0.19023E-04  5890   0.273E-02    0.166E-01
RMM:  34    -0.325554809009E+03    0.10301E-02   -0.10388E-04  5618   0.230E-02    0.140E-01
RMM:  35    -0.325554615970E+03    0.19304E-03   -0.54191E-05  5389   0.176E-02    0.120E-01
RMM:  36    -0.325554397231E+03    0.21874E-03   -0.42930E-05  5283   0.147E-02    0.103E-01
RMM:  37    -0.325554128103E+03    0.26913E-03   -0.50774E-05  5285   0.161E-02    0.833E-02
RMM:  38    -0.325554135110E+03   -0.70065E-05   -0.61817E-05  5368   0.171E-02
   1 F= -.33534966E+03 E0= -.33532838E+03  d E =-.335350E+03  mag=     0.7143
       N       E                     dE             d eps       ncg     rms          rms(c)
DAV:   1    -0.325723100083E+03   -0.16897E+00   -0.10848E+01  9560   0.669E+00    0.146E+00
RMM:   2    -0.325889264425E+03   -0.16616E+00   -0.36842E-01  9073   0.124E+00    0.568E+00
RMM:   3    -0.325769579753E+03    0.11968E+00   -0.29525E-02  9090   0.410E-01    0.268E+00
RMM:   4    -0.325756789675E+03    0.12790E-01   -0.39140E-03  8833   0.129E-01    0.262E+00
RMM:   5    -0.325758126113E+03   -0.13364E-02   -0.14064E-03  8328   0.802E-02    0.244E+00
RMM:   6    -0.325760446335E+03   -0.23202E-02   -0.75353E-03  8989   0.155E-01    0.229E+00
RMM:   7    -0.325752056150E+03    0.83902E-02   -0.12291E-02  9120   0.198E-01    0.142E+00
RMM:   8    -0.325738542615E+03    0.13514E-01   -0.49138E-03  9085   0.131E-01    0.506E-01
RMM:   9    -0.325737607835E+03    0.93478E-03   -0.11450E-03  8294   0.732E-02    0.390E-01
RMM:  10    -0.325737770439E+03   -0.16260E-03   -0.30720E-04  6492   0.399E-02    0.319E-01
RMM:  11    -0.325738272383E+03   -0.50194E-03   -0.38820E-04  6823   0.438E-02    0.232E-01
RMM:  12    -0.325738501394E+03   -0.22901E-03   -0.19173E-04  5662   0.332E-02    0.126E-01
RMM:  13    -0.325738807871E+03   -0.30648E-03   -0.78340E-05  5021   0.250E-02    0.743E-02
RMM:  14    -0.325739012922E+03   -0.20505E-03   -0.22402E-05  4700   0.128E-02    0.575E-02
RMM:  15    -0.325739224970E+03   -0.21205E-03   -0.14662E-05  4540   0.953E-03    0.417E-02
RMM:  16    -0.325739600859E+03   -0.37589E-03   -0.31070E-05  4859   0.121E-02    0.280E-02
RMM:  17    -0.325739695073E+03   -0.94214E-04   -0.12794E-05  4351   0.891E-03
   2 F= -.33553401E+03 E0= -.33551166E+03  d E =-.184357E+00  mag=     0.6696
       N       E                     dE             d eps       ncg     rms          rms(c)
DAV:   1    -0.325872302735E+03   -0.13270E+00   -0.18997E+01  9232   0.884E+00    0.192E+00
RMM:   2    -0.326174660023E+03   -0.30236E+00   -0.64817E-01  9097   0.165E+00    0.750E+00
RMM:   3    -0.325934667589E+03    0.23999E+00   -0.61528E-02  9107   0.570E-01    0.309E+00
RMM:   4    -0.325919037582E+03    0.15630E-01   -0.60584E-03  8943   0.165E-01    0.303E+00
RMM:   5    -0.325923521964E+03   -0.44844E-02   -0.25438E-03  8618   0.102E-01    0.299E+00
RMM:   6    -0.325932975943E+03   -0.94540E-02   -0.85334E-03  9034   0.167E-01    0.305E+00
RMM:   7    -0.325921313540E+03    0.11662E-01   -0.17763E-02  9122   0.247E-01    0.203E+00
RMM:   8    -0.325896310936E+03    0.25003E-01   -0.12555E-02  9120   0.203E-01    0.700E-01
RMM:   9    -0.325895074453E+03    0.12365E-02   -0.29369E-03  8943   0.114E-01    0.539E-01
RMM:  10    -0.325895447267E+03   -0.37281E-03   -0.67654E-04  7949   0.564E-02    0.435E-01
RMM:  11    -0.325895890051E+03   -0.44278E-03   -0.50224E-04  7219   0.460E-02    0.316E-01
RMM:  12    -0.325895922578E+03   -0.32528E-04   -0.38189E-04  6882   0.417E-02
   3 F= -.33568863E+03 E0= -.33566611E+03  d E =-.338972E+00  mag=     0.6887
       N       E                     dE             d eps       ncg     rms          rms(c)
DAV:   1    -0.325808862260E+03    0.87028E-01   -0.76170E+01  9120   0.177E+01    0.338E+00
RMM:   2    -0.326624806487E+03   -0.81594E+00   -0.23555E+00  9120   0.327E+00    0.116E+01
RMM:   3    -0.326023463803E+03    0.60134E+00   -0.19289E-01  9120   0.107E+00    0.558E+00
RMM:   4    -0.325963999448E+03    0.59464E-01   -0.15892E-02  9197   0.267E-01    0.488E+00
RMM:   5    -0.326012923816E+03   -0.48924E-01   -0.64570E-03  9044   0.157E-01    0.574E+00
RMM:   6    -0.326033030355E+03   -0.20107E-01   -0.26800E-02  9118   0.294E-01    0.531E+00
RMM:   7    -0.325980548590E+03    0.52482E-01   -0.70458E-02  9120   0.467E-01    0.355E+00
RMM:   8    -0.325910706018E+03    0.69843E-01   -0.56520E-02  9120   0.442E-01    0.186E+00
RMM:   9    -0.325902616735E+03    0.80893E-02   -0.16345E-02  9122   0.269E-01    0.152E+00
RMM:  10    -0.325910080628E+03   -0.74639E-02   -0.39551E-03  9069   0.135E-01    0.133E+00
RMM:  11    -0.325916562684E+03   -0.64821E-02   -0.45888E-03  8897   0.123E-01    0.100E+00
RMM:  12    -0.325916088989E+03    0.47370E-03   -0.25804E-03  8776   0.919E-02    0.707E-01
RMM:  13    -0.325914200946E+03    0.18880E-02   -0.66909E-04  7805   0.505E-02    0.533E-01
RMM:  14    -0.325911865971E+03    0.23350E-02   -0.43967E-04  6815   0.409E-02    0.417E-01
RMM:  15    -0.325907991440E+03    0.38745E-02   -0.61771E-04  7510   0.491E-02    0.238E-01
RMM:  16    -0.325906456686E+03    0.15348E-02   -0.24056E-04  5936   0.350E-02    0.122E-01
RMM:  17    -0.325907399050E+03   -0.94236E-03   -0.77560E-05  5134   0.235E-02    0.807E-02
RMM:  18    -0.325908459752E+03   -0.10607E-02   -0.32357E-05  4996   0.146E-02    0.652E-02
RMM:  19    -0.325910175683E+03   -0.17159E-02   -0.35986E-05  4998   0.127E-02    0.412E-02
RMM:  20    -0.325912699622E+03   -0.25239E-02   -0.45088E-05  5083   0.119E-02    0.334E-02
RMM:  21    -0.325914212777E+03   -0.15132E-02   -0.23424E-05  4668   0.973E-03    0.315E-02
RMM:  22    -0.325915371556E+03   -0.11588E-02   -0.16886E-05  4312   0.824E-03    0.268E-02
RMM:  23    -0.325916417399E+03   -0.10458E-02   -0.18824E-05  4369   0.789E-03    0.227E-02
RMM:  24    -0.325917354618E+03   -0.93722E-03   -0.24807E-05  4725   0.819E-03    0.191E-02
RMM:  25    -0.325917777032E+03   -0.42241E-03   -0.13105E-05  3555   0.649E-03    0.142E-02
RMM:  26    -0.325917993711E+03   -0.21668E-03   -0.10606E-05  3541   0.617E-03    0.116E-02
RMM:  27    -0.325918060069E+03   -0.66358E-04   -0.80880E-06  3198   0.558E-03
   4 F= -.33570748E+03 E0= -.33568623E+03  d E =-.357817E+00  mag=     0.7703
       N       E                     dE             d eps       ncg     rms          rms(c)
DAV:   1    -0.325934839582E+03   -0.16846E-01   -0.16292E+01  9396   0.827E+00    0.165E+00
RMM:   2    -0.326116976100E+03   -0.18214E+00   -0.53127E-01  9083   0.156E+00    0.590E+00
RMM:   3    -0.325993715288E+03    0.12326E+00   -0.34490E-02  9119   0.467E-01    0.289E+00
RMM:   4    -0.325978688918E+03    0.15026E-01   -0.47481E-03  8921   0.142E-01    0.273E+00
RMM:   5    -0.325980148417E+03   -0.14595E-02   -0.28471E-03  8836   0.102E-01    0.239E+00
RMM:   6    -0.325977025463E+03    0.31230E-02   -0.12759E-02  9026   0.198E-01    0.200E+00
RMM:   7    -0.325956330928E+03    0.20695E-01   -0.13442E-02  9102   0.208E-01    0.951E-01
RMM:   8    -0.325953734373E+03    0.25966E-02   -0.36484E-03  8998   0.118E-01    0.712E-01
RMM:   9    -0.325950840978E+03    0.28934E-02   -0.14794E-03  8322   0.750E-02    0.367E-01
RMM:  10    -0.325951457595E+03   -0.61662E-03   -0.47097E-04  7198   0.443E-02    0.217E-01
RMM:  11    -0.325952968213E+03   -0.15106E-02   -0.25842E-04  5993   0.341E-02    0.153E-01
RMM:  12    -0.325954571445E+03   -0.16032E-02   -0.21317E-04  5851   0.297E-02    0.953E-02
RMM:  13    -0.325955803115E+03   -0.12317E-02   -0.15564E-04  5641   0.252E-02    0.667E-02
RMM:  14    -0.325956367561E+03   -0.56445E-03   -0.65807E-05  5234   0.193E-02    0.612E-02
RMM:  15    -0.325956912310E+03   -0.54475E-03   -0.69882E-05  5213   0.160E-02    0.421E-02
RMM:  16    -0.325957138517E+03   -0.22621E-03   -0.56526E-05  5206   0.139E-02    0.384E-02
RMM:  17    -0.325957054174E+03    0.84343E-04   -0.33354E-05  4937   0.125E-02
   5 F= -.33574800E+03 E0= -.33572672E+03  d E =-.398345E+00  mag=     0.8150
       N       E                     dE             d eps       ncg     rms          rms(c)
DAV:   1    -0.326013939396E+03   -0.56801E-01   -0.88644E+00  9320   0.592E+00    0.931E-01
RMM:   2    -0.326087683832E+03   -0.73744E-01   -0.22936E-01  9114   0.105E+00    0.357E+00
RMM:   3    -0.326039239705E+03    0.48444E-01   -0.13292E-02  9082   0.324E-01    0.158E+00
RMM:   4    -0.326037582885E+03    0.16568E-02   -0.34082E-03  8806   0.113E-01    0.159E+00
RMM:   5    -0.326035961480E+03    0.16214E-02   -0.31245E-03  8910   0.105E-01    0.142E+00
RMM:   6    -0.326031326709E+03    0.46348E-02   -0.39528E-03  8852   0.112E-01    0.855E-01
RMM:   7    -0.326028465061E+03    0.28616E-02   -0.49677E-03  8918   0.130E-01    0.443E-01
RMM:   8    -0.326027344167E+03    0.11209E-02   -0.10244E-03  8154   0.633E-02    0.170E-01
RMM:   9    -0.326027315223E+03    0.28944E-04   -0.13092E-04  5389   0.290E-02
   6 F= -.33581626E+03 E0= -.33579533E+03  d E =-.682537E-01  mag=     0.8111
       N       E                     dE             d eps       ncg     rms          rms(c)
DAV:   1    -0.326040384446E+03   -0.13040E-01   -0.52925E+00  9260   0.458E+00    0.733E-01
RMM:   2    -0.326098591640E+03   -0.58207E-01   -0.14105E-01  9095   0.827E-01    0.316E+00
RMM:   3    -0.326055842149E+03    0.42749E-01   -0.92607E-03  9067   0.260E-01    0.119E+00
RMM:   4    -0.326052584088E+03    0.32581E-02   -0.22772E-03  8674   0.962E-02    0.103E+00
RMM:   5    -0.326053145191E+03   -0.56110E-03   -0.16050E-03  8796   0.785E-02    0.105E+00
RMM:   6    -0.326053732587E+03   -0.58740E-03   -0.17010E-03  8705   0.776E-02    0.967E-01
RMM:   7    -0.326049600173E+03    0.41324E-02   -0.28478E-03  8593   0.918E-02    0.366E-01
RMM:   8    -0.326048948175E+03    0.65200E-03   -0.14969E-03  8359   0.739E-02    0.262E-01
RMM:   9    -0.326048548383E+03    0.39979E-03   -0.22149E-04  5930   0.326E-02    0.106E-01
RMM:  10    -0.326048514861E+03    0.33522E-04   -0.60100E-05  4983   0.207E-02
   7 F= -.33583590E+03 E0= -.33581539E+03  d E =-.879005E-01  mag=     0.8131
       N       E                     dE             d eps       ncg     rms          rms(c)
DAV:   1    -0.326049018648E+03   -0.47026E-03   -0.18479E-01  9680   0.856E-01    0.148E-01
RMM:   2    -0.326052331815E+03   -0.33132E-02   -0.53293E-03  8857   0.159E-01    0.771E-01
RMM:   3    -0.326049618793E+03    0.27130E-02   -0.42125E-04  6927   0.548E-02    0.231E-01
RMM:   4    -0.326049419096E+03    0.19970E-03   -0.10395E-04  5176   0.259E-02    0.185E-01
RMM:   5    -0.326049442244E+03   -0.23148E-04   -0.57774E-05  5023   0.207E-02
   8 F= -.33583654E+03 E0= -.33581596E+03  d E =-.885377E-01  mag=     0.8125
       N       E                     dE             d eps       ncg     rms          rms(c)
DAV:   1    -0.326074492112E+03   -0.25073E-01   -0.55131E+00  9176   0.495E+00    0.565E-01
RMM:   2    -0.326117059797E+03   -0.42568E-01   -0.12389E-01  9082   0.764E-01    0.243E+00
RMM:   3    -0.326086548165E+03    0.30512E-01   -0.64852E-03  9022   0.223E-01    0.630E-01
RMM:   4    -0.326088649665E+03   -0.21015E-02   -0.20931E-03  8873   0.957E-02    0.943E-01
RMM:   5    -0.326086385604E+03    0.22641E-02   -0.10917E-03  8512   0.657E-02    0.698E-01
RMM:   6    -0.326085920330E+03    0.46527E-03   -0.86836E-04  8361   0.596E-02    0.574E-01
RMM:   7    -0.326084417805E+03    0.15025E-02   -0.88550E-04  8213   0.593E-02    0.247E-01
RMM:   8    -0.326084138747E+03    0.27906E-03   -0.22502E-04  5911   0.358E-02    0.102E-01
RMM:   9    -0.326084072656E+03    0.66091E-04   -0.73700E-05  5050   0.254E-02
   9 F= -.33586962E+03 E0= -.33584936E+03  d E =-.330821E-01  mag=     0.8064
       N       E                     dE             d eps       ncg     rms          rms(c)
DAV:   1    -0.326064445100E+03    0.19694E-01   -0.30156E+01  9128   0.116E+01    0.130E+00
RMM:   2    -0.326239376569E+03   -0.17493E+00   -0.69923E-01  9120   0.181E+00    0.477E+00
RMM:   3    -0.326132896686E+03    0.10648E+00   -0.35045E-02  9152   0.522E-01    0.135E+00
RMM:   4    -0.326141188416E+03   -0.82917E-02   -0.12021E-02  9127   0.217E-01    0.194E+00
RMM:   5    -0.326133217991E+03    0.79704E-02   -0.66470E-03  9119   0.155E-01    0.172E+00
RMM:   6    -0.326127956460E+03    0.52615E-02   -0.33572E-03  9047   0.113E-01    0.130E+00
RMM:   7    -0.326121944591E+03    0.60119E-02   -0.57134E-03  8942   0.135E-01    0.684E-01
RMM:   8    -0.326118502117E+03    0.34425E-02   -0.19418E-03  8793   0.888E-02    0.279E-01
RMM:   9    -0.326117869346E+03    0.63277E-03   -0.46223E-04  7245   0.456E-02    0.146E-01
RMM:  10    -0.326117894989E+03   -0.25643E-04   -0.83597E-05  5258   0.225E-02
  10 F= -.33589981E+03 E0= -.33588044E+03  d E =-.632711E-01  mag=     0.8103
       N       E                     dE             d eps       ncg     rms          rms(c)
DAV:   1    -0.326132663240E+03   -0.14794E-01   -0.11391E+01  9200   0.680E+00    0.765E-01
RMM:   2    -0.326160293255E+03   -0.27630E-01   -0.24820E-01  9068   0.102E+00    0.126E+00
RMM:   3    -0.326162568650E+03   -0.22754E-02   -0.13010E-02  9015   0.304E-01    0.118E+00
RMM:   4    -0.326158988164E+03    0.35805E-02   -0.37778E-03  8976   0.120E-01    0.101E+00
RMM:   5    -0.326153938265E+03    0.50499E-02   -0.21468E-03  8536   0.891E-02    0.527E-01
RMM:   6    -0.326154729138E+03   -0.79087E-03   -0.13002E-03  8560   0.693E-02    0.546E-01
RMM:   7    -0.326153680193E+03    0.10489E-02   -0.10552E-03  8284   0.606E-02    0.313E-01
RMM:   8    -0.326153275793E+03    0.40440E-03   -0.61192E-04  7434   0.491E-02    0.166E-01
RMM:   9    -0.326153044407E+03    0.23139E-03   -0.19921E-04  5730   0.300E-02    0.939E-02
RMM:  10    -0.326152997212E+03    0.47195E-04   -0.31155E-05  4764   0.161E-02
  11 F= -.33593193E+03 E0= -.33591253E+03  d E =-.321214E-01  mag=     0.7830
       N       E                     dE             d eps       ncg     rms          rms(c)
DAV:   1    -0.326157247289E+03   -0.42029E-02   -0.46154E+00  9312   0.434E+00    0.483E-01
RMM:   2    -0.326170512068E+03   -0.13265E-01   -0.99630E-02  9032   0.651E-01    0.104E+00
RMM:   3    -0.326168217848E+03    0.22942E-02   -0.49786E-03  8956   0.191E-01    0.648E-01
RMM:   4    -0.326166803245E+03    0.14146E-02   -0.16967E-03  8566   0.811E-02    0.553E-01
RMM:   5    -0.326165591643E+03    0.12116E-02   -0.92696E-04  7816   0.582E-02    0.401E-01
RMM:   6    -0.326165457896E+03    0.13375E-03   -0.42915E-04  7249   0.432E-02    0.322E-01
RMM:   7    -0.326165104321E+03    0.35357E-03   -0.50696E-04  7246   0.455E-02    0.200E-01
RMM:   8    -0.326164922345E+03    0.18198E-03   -0.21653E-04  5672   0.326E-02    0.970E-02
RMM:   9    -0.326164874920E+03    0.47425E-04   -0.73265E-05  4946   0.243E-02
  12 F= -.33594191E+03 E0= -.33592260E+03  d E =-.420985E-01  mag=     0.7528
       N       E                     dE             d eps       ncg     rms          rms(c)
DAV:   1    -0.326134281378E+03    0.30641E-01   -0.18387E+01  9120   0.867E+00    0.967E-01
RMM:   2    -0.326186065035E+03   -0.51784E-01   -0.41006E-01  9090   0.131E+00    0.197E+00
RMM:   3    -0.326180985591E+03    0.50794E-02   -0.20902E-02  9108   0.388E-01    0.137E+00
RMM:   4    -0.326173953551E+03    0.70320E-02   -0.67333E-03  9089   0.160E-01    0.114E+00
RMM:   5    -0.326168688905E+03    0.52646E-02   -0.36635E-03  8768   0.114E-01    0.811E-01
RMM:   6    -0.326167918495E+03    0.77041E-03   -0.15541E-03  8629   0.770E-02    0.643E-01
RMM:   7    -0.326166606430E+03    0.13121E-02   -0.20009E-03  8535   0.810E-02    0.388E-01
RMM:   8    -0.326166036380E+03    0.57005E-03   -0.94876E-04  7965   0.615E-02    0.194E-01
RMM:   9    -0.326165794320E+03    0.24206E-03   -0.25245E-04  5959   0.327E-02    0.101E-01
RMM:  10    -0.326165786474E+03    0.78458E-05   -0.37430E-05  4840   0.171E-02
  13 F= -.33593902E+03 E0= -.33591996E+03  d E =-.392055E-01  mag=     0.7098
       N       E                     dE             d eps       ncg     rms          rms(c)
DAV:   1    -0.326158630171E+03    0.71641E-02   -0.64499E+00  9160   0.513E+00    0.555E-01
RMM:   2    -0.326176229217E+03   -0.17599E-01   -0.13277E-01  9026   0.758E-01    0.116E+00
RMM:   3    -0.326172985239E+03    0.32440E-02   -0.64132E-03  8997   0.218E-01    0.697E-01
RMM:   4    -0.326172589242E+03    0.39600E-03   -0.21973E-03  8733   0.929E-02    0.747E-01
RMM:   5    -0.326170529157E+03    0.20601E-02   -0.11918E-03  8180   0.674E-02    0.521E-01
RMM:   6    -0.326169976810E+03    0.55235E-03   -0.48984E-04  7417   0.454E-02    0.384E-01
RMM:   7    -0.326169781407E+03    0.19540E-03   -0.87075E-04  7795   0.553E-02    0.251E-01
RMM:   8    -0.326169458693E+03    0.32271E-03   -0.32397E-04  6373   0.373E-02    0.932E-02
RMM:   9    -0.326169402315E+03    0.56378E-04   -0.86601E-05  5082   0.248E-02
  14 F= -.33594489E+03 E0= -.33592562E+03  d E =-.450741E-01  mag=     0.6919
       N       E                     dE             d eps       ncg     rms          rms(c)
DAV:   1    -0.326173960333E+03   -0.45016E-02   -0.11666E+01  9120   0.724E+00    0.743E-01
RMM:   2    -0.326208997233E+03   -0.35037E-01   -0.25719E-01  9099   0.110E+00    0.154E+00
RMM:   3    -0.326207041116E+03    0.19561E-02   -0.13441E-02  9101   0.324E-01    0.135E+00
RMM:   4    -0.326196162805E+03    0.10878E-01   -0.33671E-03  8875   0.121E-01    0.517E-01
RMM:   5    -0.326195744766E+03    0.41804E-03   -0.13567E-03  8334   0.719E-02    0.488E-01
RMM:   6    -0.326196080504E+03   -0.33574E-03   -0.12894E-03  8612   0.675E-02    0.517E-01
RMM:   7    -0.326195116900E+03    0.96360E-03   -0.10525E-03  8318   0.602E-02    0.235E-01
RMM:   8    -0.326194893631E+03    0.22327E-03   -0.86319E-04  7732   0.546E-02    0.156E-01
RMM:   9    -0.326194732817E+03    0.16081E-03   -0.15176E-04  5354   0.291E-02    0.723E-02
RMM:  10    -0.326194713739E+03    0.19078E-04   -0.34574E-05  4867   0.176E-02
  15 F= -.33596590E+03 E0= -.33594656E+03  d E =-.210153E-01  mag=     0.6802
       N       E                     dE             d eps       ncg     rms          rms(c)
DAV:   1    -0.326195126336E+03   -0.39352E-03   -0.17435E+00  9184   0.280E+00    0.296E-01
RMM:   2    -0.326200497795E+03   -0.53715E-02   -0.38395E-02  8988   0.425E-01    0.614E-01
RMM:   3    -0.326200284248E+03    0.21355E-03   -0.20880E-03  8767   0.126E-01    0.561E-01
RMM:   4    -0.326198463840E+03    0.18204E-02   -0.55086E-04  7449   0.498E-02    0.210E-01
RMM:   5    -0.326198355576E+03    0.10826E-03   -0.19517E-04  5710   0.324E-02    0.178E-01
RMM:   6    -0.326198430661E+03   -0.75085E-04   -0.16479E-04  5444   0.297E-02
  16 F= -.33596796E+03 E0= -.33594872E+03  d E =-.230725E-01  mag=     0.6768
       N       E                     dE             d eps       ncg     rms          rms(c)
DAV:   1    -0.326202314633E+03   -0.39591E-02   -0.90343E+00  9120   0.623E+00    0.677E-01
RMM:   2    -0.326231728996E+03   -0.29414E-01   -0.19529E-01  9099   0.954E-01    0.153E+00
RMM:   3    -0.326223478713E+03    0.82503E-02   -0.10015E-02  9123   0.279E-01    0.972E-01
RMM:   4    -0.326220751190E+03    0.27275E-02   -0.26373E-03  8791   0.104E-01    0.693E-01
RMM:   5    -0.326220744461E+03    0.67292E-05   -0.20091E-03  8549   0.819E-02    0.701E-01
RMM:   6    -0.326221272901E+03   -0.52844E-03   -0.13894E-03  8540   0.690E-02    0.686E-01
RMM:   7    -0.326219160382E+03    0.21125E-02   -0.11748E-03  8351   0.651E-02    0.313E-01
RMM:   8    -0.326218812597E+03    0.34778E-03   -0.94580E-04  8064   0.612E-02    0.243E-01
RMM:   9    -0.326218383955E+03    0.42864E-03   -0.24461E-04  5897   0.327E-02    0.690E-02
RMM:  10    -0.326218310824E+03    0.73131E-04   -0.42180E-05  4945   0.176E-02
  17 F= -.33598297E+03 E0= -.33596352E+03  d E =-.150140E-01  mag=     0.6848
       N       E                     dE             d eps       ncg     rms          rms(c)
DAV:   1    -0.326219013632E+03   -0.62968E-03   -0.19414E+00  9320   0.288E+00    0.313E-01
RMM:   2    -0.326225232844E+03   -0.62192E-02   -0.42339E-02  8999   0.445E-01    0.668E-01
RMM:   3    -0.326224048539E+03    0.11843E-02   -0.22634E-03  8802   0.129E-01    0.508E-01
RMM:   4    -0.326222927921E+03    0.11206E-02   -0.57875E-04  7573   0.514E-02    0.271E-01
RMM:   5    -0.326222927055E+03    0.86634E-06   -0.32029E-04  6539   0.401E-02
  18 F= -.33598534E+03 E0= -.33596570E+03  d E =-.173780E-01  mag=     0.6911
       N       E                     dE             d eps       ncg     rms          rms(c)
DAV:   1    -0.326225419744E+03   -0.24918E-02   -0.53104E+00  9152   0.486E+00    0.560E-01
RMM:   2    -0.326242982328E+03   -0.17563E-01   -0.11918E-01  9114   0.788E-01    0.992E-01
RMM:   3    -0.326241936173E+03    0.10462E-02   -0.70046E-03  9233   0.220E-01    0.110E+00
RMM:   4    -0.326236792235E+03    0.51439E-02   -0.14135E-03  8614   0.822E-02    0.511E-01
RMM:   5    -0.326236807560E+03   -0.15324E-04   -0.63246E-04  7854   0.527E-02
  19 F= -.33599569E+03 E0= -.33597606E+03  d E =-.103548E-01  mag=     0.7023
       N       E                     dE             d eps       ncg     rms          rms(c)
DAV:   1    -0.326233455647E+03    0.33366E-02   -0.39312E+00  9208   0.419E+00    0.659E-01
RMM:   2    -0.326263233296E+03   -0.29778E-01   -0.91770E-02  9120   0.699E-01    0.172E+00
RMM:   3    -0.326250338894E+03    0.12894E-01   -0.82567E-03  9125   0.214E-01    0.135E+00
RMM:   4    -0.326241639592E+03    0.86993E-02   -0.20231E-03  8597   0.102E-01    0.663E-01
RMM:   5    -0.326240801341E+03    0.83825E-03   -0.93100E-04  8126   0.631E-02    0.601E-01
RMM:   6    -0.326240279582E+03    0.52176E-03   -0.41298E-04  7122   0.411E-02    0.466E-01
RMM:   7    -0.326239488758E+03    0.79082E-03   -0.11759E-03  8510   0.668E-02    0.253E-01
RMM:   8    -0.326239029911E+03    0.45885E-03   -0.31797E-04  6507   0.382E-02    0.104E-01
RMM:   9    -0.326238980879E+03    0.49032E-04   -0.96796E-05  5136   0.246E-02
  20 F= -.33599483E+03 E0= -.33597587E+03  d E =-.948932E-02  mag=     0.7396
       N       E                     dE             d eps       ncg     rms          rms(c)
DAV:   1    -0.326233404267E+03    0.56256E-02   -0.69418E+00  9152   0.555E+00    0.600E-01
RMM:   2    -0.326249963703E+03   -0.16559E-01   -0.15341E-01  9049   0.892E-01    0.751E-01
RMM:   3    -0.326249267895E+03    0.69581E-03   -0.84412E-03  9135   0.255E-01    0.625E-01
RMM:   4    -0.326253471790E+03   -0.42039E-02   -0.22125E-03  8889   0.950E-02    0.105E+00
RMM:   5    -0.326247652758E+03    0.58190E-02   -0.10708E-03  8335   0.664E-02    0.410E-01
RMM:   6    -0.326247138178E+03    0.51458E-03   -0.46596E-04  7436   0.451E-02    0.301E-01
RMM:   7    -0.326247279088E+03   -0.14091E-03   -0.10712E-03  8304   0.621E-02    0.282E-01
RMM:   8    -0.326246853067E+03    0.42602E-03   -0.42047E-04  7075   0.429E-02    0.122E-01
RMM:   9    -0.326246799719E+03    0.53349E-04   -0.10317E-04  5161   0.259E-02
  21 F= -.33599811E+03 E0= -.33597948E+03  d E =-.328303E-02  mag=     0.7755
       N       E                     dE             d eps       ncg     rms          rms(c)
DAV:   1    -0.326245360348E+03    0.14927E-02   -0.44353E-01  9344   0.140E+00    0.154E-01
RMM:   2    -0.326246609513E+03   -0.12492E-02   -0.95451E-03  8898   0.226E-01    0.224E-01
RMM:   3    -0.326246609682E+03   -0.16903E-06   -0.52634E-04  7333   0.613E-02
  22 F= -.33599906E+03 E0= -.33598037E+03  d E =-.423899E-02  mag=     0.7821
       N       E                     dE             d eps       ncg     rms          rms(c)
DAV:   1    -0.326247613635E+03   -0.10041E-02   -0.12270E+00  9200   0.246E+00    0.285E-01
RMM:   2    -0.326270408406E+03   -0.22795E-01   -0.31555E-02  9118   0.425E-01    0.174E+00
RMM:   3    -0.326250753425E+03    0.19655E-01   -0.26542E-03  9008   0.135E-01    0.306E-01
RMM:   4    -0.326250373981E+03    0.37944E-03   -0.32224E-04  6604   0.465E-02    0.215E-01
RMM:   5    -0.326250676757E+03   -0.30278E-03   -0.22309E-04  5954   0.362E-02    0.290E-01
RMM:   6    -0.326250744443E+03   -0.67686E-04   -0.18101E-04  5604   0.327E-02
  23 F= -.33600198E+03 E0= -.33598326E+03  d E =-.291576E-02  mag=     0.7966
       N       E                     dE             d eps       ncg     rms          rms(c)
DAV:   1    -0.326250837463E+03   -0.16071E-03   -0.22508E-02  9572   0.352E-01    0.171E-01
RMM:   2    -0.326255683147E+03   -0.48457E-02   -0.20554E-03  9018   0.948E-02    0.832E-01
RMM:   3    -0.326251438310E+03    0.42448E-02   -0.82530E-04  8138   0.561E-02    0.308E-01
RMM:   4    -0.326250818970E+03    0.61934E-03   -0.87630E-05  5118   0.274E-02    0.580E-02
RMM:   5    -0.326250871262E+03   -0.52292E-04   -0.45241E-05  5032   0.180E-02
  24 F= -.33600194E+03 E0= -.33598327E+03  d E =-.287769E-02  mag=     0.8031
       N       E                     dE             d eps       ncg     rms          rms(c)
DAV:   1    -0.326251469694E+03   -0.65072E-03   -0.95622E-01  9136   0.211E+00    0.193E-01
RMM:   2    -0.326253765434E+03   -0.22957E-02   -0.19526E-02  8981   0.326E-01    0.326E-01
RMM:   3    -0.326253571286E+03    0.19415E-03   -0.11116E-03  8309   0.935E-02    0.269E-01
RMM:   4    -0.326253384288E+03    0.18700E-03   -0.14392E-04  5573   0.287E-02    0.176E-01
RMM:   5    -0.326253274459E+03    0.10983E-03   -0.12555E-04  5319   0.296E-02    0.133E-01
RMM:   6    -0.326253288884E+03   -0.14425E-04   -0.14019E-04  5267   0.257E-02
  25 F= -.33600367E+03 E0= -.33598513E+03  d E =-.173138E-02  mag=     0.8115
       N       E                     dE             d eps       ncg     rms          rms(c)
DAV:   1    -0.326253353785E+03   -0.79327E-04   -0.11702E-01  9544   0.739E-01    0.845E-02
RMM:   2    -0.326253781703E+03   -0.42792E-03   -0.23237E-03  8767   0.113E-01    0.189E-01
RMM:   3    -0.326253641340E+03    0.14036E-03   -0.12470E-04  5330   0.357E-02    0.118E-01
RMM:   4    -0.326253629773E+03    0.11567E-04   -0.47711E-05  5008   0.189E-02
  26 F= -.33600377E+03 E0= -.33598518E+03  d E =-.183064E-02  mag=     0.8145
       N       E                     dE             d eps       ncg     rms          rms(c)
DAV:   1    -0.326254110810E+03   -0.46947E-03   -0.90261E-01  9128   0.203E+00    0.198E-01
RMM:   2    -0.326256358293E+03   -0.22475E-02   -0.18895E-02  8978   0.320E-01    0.356E-01
RMM:   3    -0.326255787958E+03    0.57033E-03   -0.95175E-04  8279   0.899E-02    0.185E-01
RMM:   4    -0.326255984013E+03   -0.19605E-03   -0.12714E-04  5414   0.272E-02    0.236E-01
RMM:   5    -0.326256012407E+03   -0.28394E-04   -0.11788E-04  5229   0.286E-02
  27 F= -.33600503E+03 E0= -.33598647E+03  d E =-.125907E-02  mag=     0.8161
       N       E                     dE             d eps       ncg     rms          rms(c)
DAV:   1    -0.326256002737E+03   -0.18724E-04   -0.16303E-03 10896   0.133E-01    0.220E-01
RMM:   2    -0.326261272369E+03   -0.52696E-02   -0.18260E-03  8530   0.842E-02    0.837E-01
RMM:   3    -0.326257104260E+03    0.41681E-02   -0.96029E-04  8282   0.600E-02    0.467E-01
RMM:   4    -0.326255957765E+03    0.11465E-02   -0.27991E-04  6320   0.386E-02    0.169E-01
RMM:   5    -0.326255794734E+03    0.16303E-03   -0.80078E-05  5063   0.252E-02    0.865E-02
RMM:   6    -0.326255790303E+03    0.44312E-05   -0.23272E-05  4791   0.139E-02
  28 F= -.33600478E+03 E0= -.33598632E+03  d E =-.101062E-02  mag=     0.8166
       N       E                     dE             d eps       ncg     rms          rms(c)
DAV:   1    -0.326256852079E+03   -0.10573E-02   -0.31284E-01  9224   0.118E+00    0.125E-01
RMM:   2    -0.326258060070E+03   -0.12080E-02   -0.65584E-03  8904   0.190E-01    0.314E-01
RMM:   3    -0.326257536767E+03    0.52330E-03   -0.33193E-04  6399   0.536E-02    0.141E-01
RMM:   4    -0.326257523235E+03    0.13532E-04   -0.10416E-04  5107   0.278E-02
  29 F= -.33600543E+03 E0= -.33598698E+03  d E =-.651515E-03  mag=     0.8163
