<?xml version="1.0" encoding="ISO-8859-1"?>
<modeling>
 <generator>
  <i name="program" type="string">vasp </i>
  <i name="version" type="string">5.4.1  </i>
  <i name="subversion" type="string">08Jul2015 (build Apr 24 2014 00:09:29) complex standard with constrain (TS)     parallel </i>
  <i name="platform" type="string">IBM of Center for Computational Chemistry </i>
  <i name="date" type="string">2018 03 19 </i>
  <i name="time" type="string">06:19:32 </i>
 </generator>
 <incar>
  <i type="int" name="ISTART">     0</i>
  <i type="string" name="PREC">accurate       ! [low/medium/high/norma</i>
  <i type="string" name="ALGO">Fast</i>
  <i type="int" name="ISPIN">     2</i>
  <i type="int" name="NELM">   300</i>
  <i type="int" name="NELMIN">     3</i>
  <i type="int" name="IBRION">     2</i>
  <i name="EDIFFG">     -0.05000000</i>
  <i type="int" name="NSW">  1000</i>
  <i type="int" name="ISIF">     2</i>
  <i type="int" name="ISYM">     0</i>
  <i name="ENCUT">    500.00000000</i>
  <i name="POTIM">      0.10000000</i>
  <i type="string" name="LREAL"> A    ! aproximace, T zpomaluje, ale pre</i>
  <i type="int" name="ISMEAR">     0</i>
  <i name="SIGMA">      0.05000000</i>
  <i type="int" name="NWRITE">     2</i>
  <i type="logical" name="LWAVE"> F  </i>
  <i type="logical" name="LCHARG"> F  </i>
  <v type="int" name="KPOINT_BSE">    -1     0     0     0</v>
  <i type="int" name="NELM">   300</i>
 </incar>
 <kpoints>
  <generation param="Gamma">
   <v type="int" name="divisions">       4        4        1 </v>
   <v name="usershift">      0.00000000       0.00000000       0.00000000 </v>
   <v name="genvec1">      0.25000000       0.00000000       0.00000000 </v>
   <v name="genvec2">      0.00000000       0.25000000       0.00000000 </v>
   <v name="genvec3">      0.00000000       0.00000000       1.00000000 </v>
   <v name="shift">      0.00000000       0.00000000       0.00000000 </v>
  </generation>
  <varray name="kpointlist" >
   <v>       0.00000000       0.00000000       0.00000000 </v>
   <v>       0.25000000       0.00000000       0.00000000 </v>
   <v>       0.50000000       0.00000000       0.00000000 </v>
   <v>       0.00000000       0.25000000       0.00000000 </v>
   <v>       0.25000000       0.25000000       0.00000000 </v>
   <v>       0.50000000       0.25000000       0.00000000 </v>
   <v>      -0.25000000       0.25000000       0.00000000 </v>
   <v>       0.00000000       0.50000000       0.00000000 </v>
   <v>       0.25000000       0.50000000       0.00000000 </v>
   <v>       0.50000000       0.50000000       0.00000000 </v>
  </varray>
  <varray name="weights" >
   <v>       0.06250000 </v>
   <v>       0.12500000 </v>
   <v>       0.06250000 </v>
   <v>       0.12500000 </v>
   <v>       0.12500000 </v>
   <v>       0.12500000 </v>
   <v>       0.12500000 </v>
   <v>       0.06250000 </v>
   <v>       0.12500000 </v>
   <v>       0.06250000 </v>
  </varray>
 </kpoints>
 <parameters>
  <separator name="general" >
   <i type="string" name="SYSTEM"></i>
   <i type="logical" name="LCOMPAT"> F  </i>
  </separator>
  <separator name="electronic" >
   <i type="string" name="PREC">accura</i>
   <i name="ENMAX">    500.00000000</i>
   <i name="ENAUG">    605.39200000</i>
   <i name="EDIFF">      0.00010000</i>
   <i type="int" name="IALGO">    68</i>
   <i type="int" name="IWAVPR">    11</i>
   <i type="int" name="NBANDS">   228</i>
   <i name="NELECT">    337.00000000</i>
   <i type="int" name="TURBO">     0</i>
   <i type="int" name="IRESTART">     0</i>
   <i type="int" name="NREBOOT">     0</i>
   <i type="int" name="NMIN">     0</i>
   <i name="EREF">      0.00000000</i>
   <separator name="electronic smearing" >
    <i type="int" name="ISMEAR">     0</i>
    <i name="SIGMA">      0.05000000</i>
    <i name="KSPACING">      0.50000000</i>
    <i type="logical" name="KGAMMA"> T  </i>
   </separator>
   <separator name="electronic projectors" >
    <i type="logical" name="LREAL"> T  </i>
    <v name="ROPT">     -0.00025000     -0.00025000     -0.00025000     -0.00025000     -0.00025000</v>
    <i type="int" name="LMAXPAW">  -100</i>
    <i type="int" name="LMAXMIX">     2</i>
    <i type="logical" name="NLSPLINE"> F  </i>
   </separator>
   <separator name="electronic startup" >
    <i type="int" name="ISTART">     0</i>
    <i type="int" name="ICHARG">     2</i>
    <i type="int" name="INIWAV">     1</i>
   </separator>
   <separator name="electronic spin" >
    <i type="int" name="ISPIN">     2</i>
    <i type="logical" name="LNONCOLLINEAR"> F  </i>
    <v name="MAGMOM">      1.00000000      1.00000000      1.00000000      1.00000000      1.00000000      1.00000000      1.00000000      1.00000000      1.00000000      1.00000000      1.00000000      1.00000000      1.00000000      1.00000000      1.00000000      1.00000000      1.00000000      1.00000000      1.00000000      1.00000000
      1.00000000      1.00000000      1.00000000      1.00000000      1.00000000      1.00000000      1.00000000      1.00000000      1.00000000      1.00000000      1.00000000      1.00000000      1.00000000      1.00000000      1.00000000      1.00000000      1.00000000      1.00000000      1.00000000      1.00000000
      1.00000000      1.00000000      1.00000000      1.00000000      1.00000000      1.00000000      1.00000000      1.00000000</v>
    <i name="NUPDOWN">     -1.00000000</i>
    <i type="logical" name="LSORBIT"> F  </i>
    <v name="SAXIS">      0.00000000      0.00000000      1.00000000</v>
    <i type="logical" name="LSPIRAL"> F  </i>
    <v name="QSPIRAL">      0.00000000      0.00000000      0.00000000</v>
    <i type="logical" name="LZEROZ"> F  </i>
   </separator>
   <separator name="electronic exchange-correlation" >
    <i type="logical" name="LASPH"> F  </i>
    <i type="logical" name="LMETAGGA"> F  </i>
   </separator>
   <separator name="electronic convergence" >
    <i type="int" name="NELM">   300</i>
    <i type="int" name="NELMDL">    -5</i>
    <i type="int" name="NELMIN">     3</i>
    <i name="ENINI">    500.00000000</i>
    <separator name="electronic convergence detail" >
     <i type="logical" name="LDIAG"> T  </i>
     <i type="logical" name="LSUBROT"> F  </i>
     <i name="WEIMIN">      0.00100000</i>
     <i name="EBREAK">      0.00000011</i>
     <i name="DEPER">      0.30000000</i>
     <i type="int" name="NRMM">     4</i>
     <i name="TIME">      0.40000000</i>
    </separator>
   </separator>
   <separator name="electronic mixer" >
    <i name="AMIX">      0.40000000</i>
    <i name="BMIX">      1.00000000</i>
    <i name="AMIN">      0.10000000</i>
    <i name="AMIX_MAG">      1.60000000</i>
    <i name="BMIX_MAG">      1.00000000</i>
    <separator name="electronic mixer details" >
     <i type="int" name="IMIX">     4</i>
     <i type="logical" name="MIXFIRST"> F  </i>
     <i type="int" name="MAXMIX">   -45</i>
     <i name="WC">    100.00000000</i>
     <i type="int" name="INIMIX">     1</i>
     <i type="int" name="MIXPRE">     1</i>
     <i type="int" name="MREMOVE">     5</i>
    </separator>
   </separator>
   <separator name="electronic dipolcorrection" >
    <i type="logical" name="LDIPOL"> F  </i>
    <i type="logical" name="LMONO"> F  </i>
    <i type="int" name="IDIPOL">     0</i>
    <i name="EPSILON">      1.00000000</i>
    <v name="DIPOL">   -100.00000000   -100.00000000   -100.00000000</v>
    <i name="EFIELD">      0.00000000</i>
   </separator>
  </separator>
  <separator name="grids" >
   <i type="int" name="NGX">    48</i>
   <i type="int" name="NGY">    48</i>
   <i type="int" name="NGZ">   162</i>
   <i type="int" name="NGXF">    96</i>
   <i type="int" name="NGYF">    96</i>
   <i type="int" name="NGZF">   324</i>
   <i type="logical" name="ADDGRID"> F  </i>
  </separator>
  <separator name="ionic" >
   <i type="int" name="NSW">  1000</i>
   <i type="int" name="IBRION">     2</i>
   <i type="int" name="ISIF">     2</i>
   <i name="PSTRESS">      0.00000000</i>
   <i name="EDIFFG">     -0.05000000</i>
   <i type="int" name="NFREE">     1</i>
   <i name="POTIM">      0.10000000</i>
   <i name="SMASS">     -3.00000000</i>
   <i name="SCALEE">      1.00000000</i>
  </separator>
  <separator name="ionic md" >
   <i name="TEBEG">      0.00010000</i>
   <i name="TEEND">      0.00010000</i>
   <i type="int" name="NBLOCK">     1</i>
   <i type="int" name="KBLOCK">  1000</i>
   <i type="int" name="NPACO">   256</i>
   <i name="APACO">     16.00000000</i>
  </separator>
  <separator name="symmetry" >
   <i type="int" name="ISYM">     0</i>
   <i name="SYMPREC">      0.00001000</i>
  </separator>
  <separator name="dos" >
   <i type="logical" name="LORBIT"> F  </i>
   <v name="RWIGS">     -1.00000000     -1.00000000     -1.00000000     -1.00000000     -1.00000000</v>
   <i type="int" name="NEDOS">   301</i>
   <i name="EMIN">     10.00000000</i>
   <i name="EMAX">    -10.00000000</i>
   <i name="EFERMI">      0.00000000</i>
  </separator>
  <separator name="writing" >
   <i type="int" name="NWRITE">     2</i>
   <i type="logical" name="LWAVE"> F  </i>
   <i type="logical" name="LCHARG"> F  </i>
   <i type="logical" name="LPARD"> F  </i>
   <i type="logical" name="LVTOT"> F  </i>
   <i type="logical" name="LVHAR"> F  </i>
   <i type="logical" name="LELF"> F  </i>
   <i type="logical" name="LOPTICS"> F  </i>
   <v name="STM">      0.00000000      0.00000000      0.00000000      0.00000000      0.00000000      0.00000000      0.00000000</v>
  </separator>
  <separator name="performance" >
   <i type="int" name="NPAR">     4</i>
   <i type="int" name="NSIM">     4</i>
   <i type="int" name="NBLK">    -1</i>
   <i type="logical" name="LPLANE"> T  </i>
   <i type="logical" name="LSCALAPACK"> T  </i>
   <i type="logical" name="LSCAAWARE"> F  </i>
   <i type="logical" name="LSCALU"> F  </i>
   <i type="logical" name="LASYNC"> F  </i>
   <i type="logical" name="LORBITALREAL"> F  </i>
  </separator>
  <separator name="miscellaneous" >
   <i type="int" name="IDIOT">     3</i>
   <i type="logical" name="LMUSIC"> F  </i>
   <v name="POMASS">     16.00000000    106.42000000    190.20000000    192.22000000    195.08000000</v>
   <v name="DARWINR">      0.00000000      0.00000000      0.00000000      0.00000000      0.00000000</v>
   <v name="DARWINV">      1.00000000      1.00000000      1.00000000      1.00000000      1.00000000</v>
   <i type="logical" name="LCORR"> T  </i>
  </separator>
  <i type="logical" name="GGA_COMPAT"> T  </i>
  <i type="logical" name="LBERRY"> F  </i>
  <i type="int" name="ICORELEVEL">     0</i>
  <i type="logical" name="LDAU"> F  </i>
  <i type="int" name="I_CONSTRAINED_M">     0</i>
  <separator name="electronic exchange-correlation" >
   <i type="string" name="GGA">--</i>
   <i type="int" name="VOSKOWN">     0</i>
   <i type="logical" name="LHFCALC"> F  </i>
   <i type="string" name="PRECFOCK"></i>
   <i type="logical" name="LSYMGRAD"> F  </i>
   <i type="logical" name="LHFONE"> F  </i>
   <i type="logical" name="LRHFCALC"> F  </i>
   <i type="logical" name="LTHOMAS"> F  </i>
   <i type="logical" name="LMODELHF"> F  </i>
   <i name="ENCUT4O">     -1.00000000</i>
   <i type="int" name="EXXOEP">     0</i>
   <i type="int" name="FOURORBIT">     0</i>
   <i name="AEXX">      0.00000000</i>
   <i name="HFALPHA">      0.00000000</i>
   <i name="MCALPHA">      0.00000000</i>
   <i name="ALDAX">      1.00000000</i>
   <i name="AGGAX">      1.00000000</i>
   <i name="ALDAC">      1.00000000</i>
   <i name="AGGAC">      1.00000000</i>
   <i type="int" name="NKREDX">     1</i>
   <i type="int" name="NKREDY">     1</i>
   <i type="int" name="NKREDZ">     1</i>
   <i type="logical" name="SHIFTRED"> F  </i>
   <i type="logical" name="ODDONLY"> F  </i>
   <i type="logical" name="EVENONLY"> F  </i>
   <i type="int" name="LMAXFOCK">     0</i>
   <i type="int" name="NMAXFOCKAE">     0</i>
   <i type="logical" name="LFOCKAEDFT"> F  </i>
   <i name="HFSCREEN">      0.00000000</i>
   <i name="HFSCREENC">      0.00000000</i>
   <i type="int" name="NBANDSGWLOW">     0</i>
  </separator>
  <separator name="vdW DFT" >
   <i type="logical" name="LUSE_VDW"> F  </i>
   <i name="Zab_VDW">     -0.84910000</i>
   <i name="PARAM1">      0.12340000</i>
   <i name="PARAM2">      1.00000000</i>
   <i name="PARAM3">      0.00000000</i>
  </separator>
  <separator name="model GW" >
   <i type="int" name="MODEL_GW">     0</i>
   <i name="MODEL_EPS0">     11.18121409</i>
   <i name="MODEL_ALPHA">      1.00000000</i>
  </separator>
  <separator name="linear response parameters" >
   <i type="logical" name="LEPSILON"> F  </i>
   <i type="logical" name="LRPA"> F  </i>
   <i type="logical" name="LNABLA"> F  </i>
   <i type="logical" name="LVEL"> F  </i>
   <i type="int" name="KINTER">     0</i>
   <i name="CSHIFT">      0.10000000</i>
   <i name="OMEGAMAX">     -1.00000000</i>
   <i name="DEG_THRESHOLD">      0.00200000</i>
  </separator>
  <separator name="orbital magnetization" >
   <i type="logical" name="NUCIND"> F  </i>
   <v name="MAGPOS">      0.00000000      0.00000000      0.00000000</v>
   <i type="logical" name="LNICSALL"> T  </i>
   <i type="logical" name="ORBITALMAG"> F  </i>
   <i type="logical" name="LMAGBLOCH"> F  </i>
   <i type="logical" name="LCHIMAG"> F  </i>
   <i type="logical" name="LGAUGE"> T  </i>
   <i type="int" name="MAGATOM">     0</i>
   <v name="MAGDIPOL">      0.00000000      0.00000000      0.00000000</v>
   <v name="AVECCONST">      0.00000000      0.00000000      0.00000000</v>
  </separator>
  <separator name="response functions" >
   <i type="logical" name="LADDER"> F  </i>
   <i type="logical" name="LFXC"> F  </i>
   <i type="logical" name="LHARTREE"> T  </i>
   <i type="int" name="IBSE">     0</i>
   <v type="int" name="KPOINT">    -1     0     0     0</v>
   <i type="logical" name="LTCTE"> F  </i>
   <i type="logical" name="LTETE"> F  </i>
   <i type="logical" name="LTRIPLET"> F  </i>
   <i type="logical" name="LFXCEPS"> F  </i>
   <i type="logical" name="LFXHEG"> F  </i>
   <i type="int" name="NATURALO">     0</i>
   <i type="logical" name="L2ORDER"> F  </i>
   <i type="logical" name="LUSEW"> F  </i>
   <i name="ENCUTGW">     -2.00000000</i>
   <i name="ENCUTGWSOFT">     -2.00000000</i>
   <i name="ENCUTLF">     -1.00000000</i>
   <i type="int" name="LMAXMP2">    -1</i>
   <i name="SCISSOR">      0.00000000</i>
   <i type="int" name="NOMEGA">     0</i>
   <i type="int" name="NOMEGAR">     0</i>
   <i type="int" name="NBANDSGW">    -1</i>
   <i type="int" name="NBANDSO">    -1</i>
   <i type="int" name="NBANDSV">    -1</i>
   <i type="int" name="NELM">   300</i>
   <i type="int" name="NELMHF">     1</i>
   <i type="int" name="DIM">     3</i>
   <i type="int" name="ANTIRES">     0</i>
   <i name="OMEGAMAX">    -30.00000000</i>
   <i name="OMEGAMIN">    -30.00000000</i>
   <i name="OMEGATL">   -200.00000000</i>
   <i type="int" name="OMEGAGRID">     0</i>
   <i name="CSHIFT">     -0.10000000</i>
   <i type="logical" name="SELFENERGY"> F  </i>
   <i type="logical" name="LSPECTRAL"> F  </i>
   <i type="logical" name="LSPECTRALGW"> F  </i>
   <i type="logical" name="LSINGLES"> F  </i>
   <i type="logical" name="LFERMIGW"> F  </i>
   <i type="logical" name="ODDONLYGW"> F  </i>
   <i type="logical" name="EVENONLYGW"> F  </i>
   <i type="int" name="NKREDLFX">     1</i>
   <i type="int" name="NKREDLFY">     1</i>
   <i type="int" name="NKREDLFZ">     1</i>
   <i type="int" name="MAXMEM">  1800</i>
   <i type="int" name="TELESCOPE">     0</i>
   <i type="int" name="TAUPAR">     1</i>
   <i type="int" name="OMEGAPAR">    -1</i>
   <i name="LAMBDA">      1.00000000</i>
  </separator>
  <separator name="External order field" >
   <i name="OFIELD_KAPPA">      0.00000000</i>
   <v name="OFIELD_K">      0.00000000      0.00000000      0.00000000</v>
   <i name="OFIELD_Q6_NEAR">      0.00000000</i>
   <i name="OFIELD_Q6_FAR">      0.00000000</i>
   <i name="OFIELD_A">      0.00000000</i>
  </separator>
 </parameters>
 <atominfo>
  <atoms>      48 </atoms>
  <types>       5 </types>
  <array name="atoms" >
   <dimension dim="1">ion</dimension>
   <field type="string">element</field>
   <field type="int">atomtype</field>
   <set>
    <rc><c>O </c><c>   1</c></rc>
    <rc><c>O </c><c>   1</c></rc>
    <rc><c>O </c><c>   1</c></rc>
    <rc><c>O </c><c>   1</c></rc>
    <rc><c>O </c><c>   1</c></rc>
    <rc><c>O </c><c>   1</c></rc>
    <rc><c>O </c><c>   1</c></rc>
    <rc><c>O </c><c>   1</c></rc>
    <rc><c>O </c><c>   1</c></rc>
    <rc><c>O </c><c>   1</c></rc>
    <rc><c>O </c><c>   1</c></rc>
    <rc><c>O </c><c>   1</c></rc>
    <rc><c>O </c><c>   1</c></rc>
    <rc><c>O </c><c>   1</c></rc>
    <rc><c>O </c><c>   1</c></rc>
    <rc><c>O </c><c>   1</c></rc>
    <rc><c>O </c><c>   1</c></rc>
    <rc><c>O </c><c>   1</c></rc>
    <rc><c>O </c><c>   1</c></rc>
    <rc><c>O </c><c>   1</c></rc>
    <rc><c>O </c><c>   1</c></rc>
    <rc><c>O </c><c>   1</c></rc>
    <rc><c>O </c><c>   1</c></rc>
    <rc><c>O </c><c>   1</c></rc>
    <rc><c>O </c><c>   1</c></rc>
    <rc><c>O </c><c>   1</c></rc>
    <rc><c>O </c><c>   1</c></rc>
    <rc><c>O </c><c>   1</c></rc>
    <rc><c>O </c><c>   1</c></rc>
    <rc><c>O </c><c>   1</c></rc>
    <rc><c>O </c><c>   1</c></rc>
    <rc><c>O </c><c>   1</c></rc>
    <rc><c>Pd</c><c>   2</c></rc>
    <rc><c>Os</c><c>   3</c></rc>
    <rc><c>Ir</c><c>   4</c></rc>
    <rc><c>Ir</c><c>   4</c></rc>
    <rc><c>Ir</c><c>   4</c></rc>
    <rc><c>Ir</c><c>   4</c></rc>
    <rc><c>Ir</c><c>   4</c></rc>
    <rc><c>Ir</c><c>   4</c></rc>
    <rc><c>Ir</c><c>   4</c></rc>
    <rc><c>Ir</c><c>   4</c></rc>
    <rc><c>Ir</c><c>   4</c></rc>
    <rc><c>Ir</c><c>   4</c></rc>
    <rc><c>Ir</c><c>   4</c></rc>
    <rc><c>Ir</c><c>   4</c></rc>
    <rc><c>Ir</c><c>   4</c></rc>
    <rc><c>Pt</c><c>   5</c></rc>
   </set>
  </array>
  <array name="atomtypes" >
   <dimension dim="1">type</dimension>
   <field type="int">atomspertype</field>
   <field type="string">element</field>
   <field>mass</field>
   <field>valence</field>
   <field type="string">pseudopotential</field>
   <set>
    <rc><c>  32</c><c>O </c><c>     16.00000000</c><c>      6.00000000</c><c>  PAW_PBE O 08Apr2002                   </c></rc>
    <rc><c>   1</c><c>Pd</c><c>    106.42000000</c><c>     10.00000000</c><c>  PAW_PBE Pd 04Jan2005                  </c></rc>
    <rc><c>   1</c><c>Os</c><c>    190.20000000</c><c>      8.00000000</c><c>  PAW_PBE Os 17Jan2003                  </c></rc>
    <rc><c>  13</c><c>Ir</c><c>    192.22000000</c><c>      9.00000000</c><c>  PAW_PBE Ir 06Sep2000                  </c></rc>
    <rc><c>   1</c><c>Pt</c><c>    195.08000000</c><c>     10.00000000</c><c>  PAW_PBE Pt 04Feb2005                  </c></rc>
   </set>
  </array>
 </atominfo>
 <structure name="initialpos" >
  <crystal>
   <varray name="basis" >
    <v>       6.36215693       0.00000000       0.00000000 </v>
    <v>       0.00000000       6.38448299       0.00000000 </v>
    <v>       0.00000000       0.00000000      22.02159841 </v>
   </varray>
   <i name="volume">    894.49712699 </i>
   <varray name="rec_basis" >
    <v>       0.15717940       0.00000000       0.00000000 </v>
    <v>       0.00000000       0.15662975       0.00000000 </v>
    <v>       0.00000000       0.00000000       0.04540996 </v>
   </varray>
  </crystal>
  <varray name="positions" >
   <v>       0.08911000       0.35546000       0.00000000 </v>
   <v>       0.58911000       0.35546000       0.00000000 </v>
   <v>       0.33911000       0.04693000       0.05551000 </v>
   <v>       0.83911000       0.04693000       0.05551000 </v>
   <v>       0.33911000       0.66399000       0.05551000 </v>
   <v>       0.83911000       0.66399000       0.05551000 </v>
   <v>       0.08911000       0.35546000       0.11102000 </v>
   <v>       0.58911000       0.35546000       0.11102000 </v>
   <v>       0.58911000       0.85546000       0.14496000 </v>
   <v>       0.08911000       0.85546000       0.14496000 </v>
   <v>       0.33911000       0.16399000       0.20047000 </v>
   <v>       0.83911000       0.16399000       0.20047000 </v>
   <v>       0.33911000       0.54693000       0.20047000 </v>
   <v>       0.83911000       0.54693000       0.20047000 </v>
   <v>       0.08911000       0.85546000       0.25598000 </v>
   <v>       0.58911000       0.85546000       0.25598000 </v>
   <v>       0.08914000       0.35542000       0.28947000 </v>
   <v>       0.58914000       0.35542000       0.28947000 </v>
   <v>       0.33913000       0.04670000       0.34597000 </v>
   <v>       0.83913000       0.04670000       0.34597000 </v>
   <v>       0.33911000       0.66418000       0.34595000 </v>
   <v>       0.83911000       0.66418000       0.34595000 </v>
   <v>       0.08916000       0.35571000       0.39990000 </v>
   <v>       0.58916000       0.35571000       0.39990000 </v>
   <v>       0.08915000       0.85549000       0.43609000 </v>
   <v>       0.58915000       0.85549000       0.43609000 </v>
   <v>       0.33914000       0.16538000       0.49406000 </v>
   <v>       0.83914000       0.16538000       0.49406000 </v>
   <v>       0.33915000       0.54556000       0.49405000 </v>
   <v>       0.83915000       0.54556000       0.49405000 </v>
   <v>       0.08915000       0.85548000       0.54665000 </v>
   <v>       0.58915000       0.85548000       0.54665000 </v>
   <v>       0.58913000       0.35545000       0.48811000 </v>
   <v>       0.83915000       0.85545000       0.49288000 </v>
   <v>       0.33911000       0.35546000       0.05551000 </v>
   <v>       0.83911000       0.35546000       0.05551000 </v>
   <v>       0.08911000       0.85546000       0.05551000 </v>
   <v>       0.58911000       0.85546000       0.05551000 </v>
   <v>       0.08911000       0.35546000       0.20047000 </v>
   <v>       0.58911000       0.35546000       0.20047000 </v>
   <v>       0.33911000       0.85546000       0.20047000 </v>
   <v>       0.83911000       0.85546000       0.20047000 </v>
   <v>       0.83914000       0.35543000       0.34488000 </v>
   <v>       0.33914000       0.35543000       0.34488000 </v>
   <v>       0.08911000       0.85543000       0.34634000 </v>
   <v>       0.58911000       0.85543000       0.34634000 </v>
   <v>       0.08913000       0.35545000       0.48811000 </v>
   <v>       0.33915000       0.85545000       0.49288000 </v>
  </varray>
  <varray name="selective"  type="logical" >
   <v type="logical" >  F  F  F </v>
   <v type="logical" >  F  F  F </v>
   <v type="logical" >  F  F  F </v>
   <v type="logical" >  F  F  F </v>
   <v type="logical" >  F  F  F </v>
   <v type="logical" >  F  F  F </v>
   <v type="logical" >  F  F  F </v>
   <v type="logical" >  F  F  F </v>
   <v type="logical" >  F  F  F </v>
   <v type="logical" >  F  F  F </v>
   <v type="logical" >  F  F  F </v>
   <v type="logical" >  F  F  F </v>
   <v type="logical" >  F  F  F </v>
   <v type="logical" >  F  F  F </v>
   <v type="logical" >  F  F  F </v>
   <v type="logical" >  F  F  F </v>
   <v type="logical" >  T  T  T </v>
   <v type="logical" >  T  T  T </v>
   <v type="logical" >  T  T  T </v>
   <v type="logical" >  T  T  T </v>
   <v type="logical" >  T  T  T </v>
   <v type="logical" >  T  T  T </v>
   <v type="logical" >  T  T  T </v>
   <v type="logical" >  T  T  T </v>
   <v type="logical" >  T  T  T </v>
   <v type="logical" >  T  T  T </v>
   <v type="logical" >  T  T  T </v>
   <v type="logical" >  T  T  T </v>
   <v type="logical" >  T  T  T </v>
   <v type="logical" >  T  T  T </v>
   <v type="logical" >  T  T  T </v>
   <v type="logical" >  T  T  T </v>
   <v type="logical" >  T  T  T </v>
   <v type="logical" >  T  T  T </v>
   <v type="logical" >  F  F  F </v>
   <v type="logical" >  F  F  F </v>
   <v type="logical" >  F  F  F </v>
   <v type="logical" >  F  F  F </v>
   <v type="logical" >  F  F  F </v>
   <v type="logical" >  F  F  F </v>
   <v type="logical" >  F  F  F </v>
   <v type="logical" >  F  F  F </v>
   <v type="logical" >  T  T  T </v>
   <v type="logical" >  T  T  T </v>
   <v type="logical" >  T  T  T </v>
   <v type="logical" >  T  T  T </v>
   <v type="logical" >  T  T  T </v>
   <v type="logical" >  T  T  T </v>
  </varray>
  <nose>
   <v>      -3.00000000       0.00000000       0.00010000       0.00010000 </v>
  </nose>
 </structure>
 <calculation>
  <scstep>
   <time name="dav">   28.55   28.57</time>
   <time name="total">   28.87   28.89</time>
   <energy>
    <i name="alphaZ">   1011.05067375 </i>
    <i name="ewald">  63605.46361336 </i>
    <i name="hartreedc"> -86948.03216815 </i>
    <i name="XCdc">    614.15940269 </i>
    <i name="pawpsdc">  20185.32502450 </i>
    <i name="pawaedc"> -19576.45891582 </i>
    <i name="eentropy">     -0.02251859 </i>
    <i name="bandstr">   1564.77008806 </i>
    <i name="atom">  23074.22436774 </i>
    <i name="e_fr_energy">   3530.47956754 </i>
    <i name="e_wo_entrp">   3530.50208613 </i>
    <i name="e_0_energy">   3530.49082684 </i>
   </energy>
  </scstep>
  <scstep>
   <time name="dav">   29.62   29.63</time>
   <time name="total">   29.62   29.64</time>
   <energy>
    <i name="e_fr_energy">    137.99084662 </i>
    <i name="e_wo_entrp">    138.01746112 </i>
    <i name="e_0_energy">    138.00415387 </i>
   </energy>
  </scstep>
  <scstep>
   <time name="dav">   33.46   33.48</time>
   <time name="total">   33.47   33.49</time>
   <energy>
    <i name="e_fr_energy">   -359.51027413 </i>
    <i name="e_wo_entrp">   -359.47673507 </i>
    <i name="e_0_energy">   -359.49350460 </i>
   </energy>
  </scstep>
  <scstep>
   <time name="dav">   33.81   33.83</time>
   <time name="total">   33.82   33.83</time>
   <energy>
    <i name="e_fr_energy">   -381.87836077 </i>
    <i name="e_wo_entrp">   -381.84248341 </i>
    <i name="e_0_energy">   -381.86042209 </i>
   </energy>
  </scstep>
  <scstep>
   <time name="dav">   33.75   33.76</time>
   <time name="total">   34.67   34.68</time>
   <energy>
    <i name="e_fr_energy">   -382.44804974 </i>
    <i name="e_wo_entrp">   -382.41222199 </i>
    <i name="e_0_energy">   -382.43013587 </i>
   </energy>
  </scstep>
  <scstep>
   <time name="diag">    4.80    4.81</time>
   <time name="diis">   15.66   15.67</time>
   <time name="orth">    0.97    0.97</time>
   <time name="total">   22.67   22.67</time>
   <energy>
    <i name="e_fr_energy">   -290.48828782 </i>
    <i name="e_wo_entrp">   -290.45102578 </i>
    <i name="e_0_energy">   -290.46965680 </i>
   </energy>
  </scstep>
  <scstep>
   <time name="diag">    4.82    4.82</time>
   <time name="diis">   15.67   15.68</time>
   <time name="orth">    0.97    0.97</time>
   <time name="total">   22.68   22.69</time>
   <energy>
    <i name="e_fr_energy">   -390.12906790 </i>
    <i name="e_wo_entrp">   -390.09645139 </i>
    <i name="e_0_energy">   -390.11275965 </i>
   </energy>
  </scstep>
  <scstep>
   <time name="diag">    4.81    4.81</time>
   <time name="diis">   15.64   15.65</time>
   <time name="orth">    0.97    0.97</time>
   <time name="total">   22.64   22.65</time>
   <energy>
    <i name="e_fr_energy">   -310.31075047 </i>
    <i name="e_wo_entrp">   -310.27346277 </i>
    <i name="e_0_energy">   -310.29210662 </i>
   </energy>
  </scstep>
  <scstep>
   <time name="diag">    4.81    4.81</time>
   <time name="diis">   15.64   15.64</time>
   <time name="orth">    0.97    0.97</time>
   <time name="total">   22.64   22.65</time>
   <energy>
    <i name="e_fr_energy">   -289.78567219 </i>
    <i name="e_wo_entrp">   -289.74852545 </i>
    <i name="e_0_energy">   -289.76709882 </i>
   </energy>
  </scstep>
  <scstep>
   <time name="diag">    4.81    4.82</time>
   <time name="diis">   15.61   15.62</time>
   <time name="orth">    0.97    0.97</time>
   <time name="total">   22.62   22.63</time>
   <energy>
    <i name="e_fr_energy">   -295.58468136 </i>
    <i name="e_wo_entrp">   -295.55883390 </i>
    <i name="e_0_energy">   -295.57175763 </i>
   </energy>
  </scstep>
  <scstep>
   <time name="diag">    4.80    4.80</time>
   <time name="diis">   15.63   15.64</time>
   <time name="orth">    0.97    0.97</time>
   <time name="total">   22.63   22.64</time>
   <energy>
    <i name="e_fr_energy">   -285.56403651 </i>
    <i name="e_wo_entrp">   -285.52368225 </i>
    <i name="e_0_energy">   -285.54385938 </i>
   </energy>
  </scstep>
  <scstep>
   <time name="diag">    4.79    4.80</time>
   <time name="diis">   15.61   15.62</time>
   <time name="orth">    0.97    0.97</time>
   <time name="total">   22.60   22.61</time>
   <energy>
    <i name="e_fr_energy">   -288.64690274 </i>
    <i name="e_wo_entrp">   -288.61668662 </i>
    <i name="e_0_energy">   -288.63179468 </i>
   </energy>
  </scstep>
  <scstep>
   <time name="diag">    4.80    4.81</time>
   <time name="diis">   15.66   15.66</time>
   <time name="orth">    0.97    0.97</time>
   <time name="total">   22.66   22.67</time>
   <energy>
    <i name="e_fr_energy">   -290.60798734 </i>
    <i name="e_wo_entrp">   -290.58475613 </i>
    <i name="e_0_energy">   -290.59637173 </i>
   </energy>
  </scstep>
  <scstep>
   <time name="diag">    4.80    4.80</time>
   <time name="diis">   15.66   15.66</time>
   <time name="orth">    0.97    0.97</time>
   <time name="total">   22.65   22.66</time>
   <energy>
    <i name="e_fr_energy">   -294.33931455 </i>
    <i name="e_wo_entrp">   -294.31254662 </i>
    <i name="e_0_energy">   -294.32593059 </i>
   </energy>
  </scstep>
  <scstep>
   <time name="diag">    4.80    4.80</time>
   <time name="diis">   15.65   15.66</time>
   <time name="orth">    0.97    0.97</time>
   <time name="total">   22.66   22.67</time>
   <energy>
    <i name="e_fr_energy">   -305.12928676 </i>
    <i name="e_wo_entrp">   -305.09988023 </i>
    <i name="e_0_energy">   -305.11458350 </i>
   </energy>
  </scstep>
  <scstep>
   <time name="diag">    4.82    4.83</time>
   <time name="diis">   15.62   15.63</time>
   <time name="orth">    0.97    0.97</time>
   <time name="total">   22.65   22.66</time>
   <energy>
    <i name="e_fr_energy">   -313.54477884 </i>
    <i name="e_wo_entrp">   -313.51574187 </i>
    <i name="e_0_energy">   -313.53026035 </i>
   </energy>
  </scstep>
  <scstep>
   <time name="diag">    4.82    4.83</time>
   <time name="diis">   15.64   15.64</time>
   <time name="orth">    0.97    0.97</time>
   <time name="total">   22.67   22.68</time>
   <energy>
    <i name="e_fr_energy">   -319.93050976 </i>
    <i name="e_wo_entrp">   -319.89840994 </i>
    <i name="e_0_energy">   -319.91445985 </i>
   </energy>
  </scstep>
  <scstep>
   <time name="diag">    4.83    4.83</time>
   <time name="diis">   15.64   15.65</time>
   <time name="orth">    0.97    0.97</time>
   <time name="total">   22.68   22.69</time>
   <energy>
    <i name="e_fr_energy">   -322.65562649 </i>
    <i name="e_wo_entrp">   -322.62526427 </i>
    <i name="e_0_energy">   -322.64044538 </i>
   </energy>
  </scstep>
  <scstep>
   <time name="diag">    4.83    4.83</time>
   <time name="diis">   15.58   15.59</time>
   <time name="orth">    0.97    0.97</time>
   <time name="total">   22.62   22.63</time>
   <energy>
    <i name="e_fr_energy">   -323.06002640 </i>
    <i name="e_wo_entrp">   -323.02311764 </i>
    <i name="e_0_energy">   -323.04157202 </i>
   </energy>
  </scstep>
  <scstep>
   <time name="diag">    4.83    4.83</time>
   <time name="diis">   15.55   15.55</time>
   <time name="orth">    0.97    0.97</time>
   <time name="total">   22.59   22.60</time>
   <energy>
    <i name="e_fr_energy">   -323.75524119 </i>
    <i name="e_wo_entrp">   -323.71989891 </i>
    <i name="e_0_energy">   -323.73757005 </i>
   </energy>
  </scstep>
  <scstep>
   <time name="diag">    4.79    4.79</time>
   <time name="diis">   15.60   15.60</time>
   <time name="orth">    0.97    0.97</time>
   <time name="total">   22.59   22.60</time>
   <energy>
    <i name="e_fr_energy">   -324.26506427 </i>
    <i name="e_wo_entrp">   -324.23063329 </i>
    <i name="e_0_energy">   -324.24784878 </i>
   </energy>
  </scstep>
  <scstep>
   <time name="diag">    4.78    4.79</time>
   <time name="diis">   15.59   15.59</time>
   <time name="orth">    0.97    0.97</time>
   <time name="total">   22.59   22.60</time>
   <energy>
    <i name="e_fr_energy">   -324.74048305 </i>
    <i name="e_wo_entrp">   -324.70296115 </i>
    <i name="e_0_energy">   -324.72172210 </i>
   </energy>
  </scstep>
  <scstep>
   <time name="diag">    4.78    4.79</time>
   <time name="diis">   15.56   15.57</time>
   <time name="orth">    0.97    0.97</time>
   <time name="total">   22.56   22.57</time>
   <energy>
    <i name="e_fr_energy">   -325.11858604 </i>
    <i name="e_wo_entrp">   -325.08100688 </i>
    <i name="e_0_energy">   -325.09979646 </i>
   </energy>
  </scstep>
  <scstep>
   <time name="diag">    4.79    4.79</time>
   <time name="diis">   15.63   15.64</time>
   <time name="orth">    0.97    0.97</time>
   <time name="total">   22.63   22.64</time>
   <energy>
    <i name="e_fr_energy">   -325.27471360 </i>
    <i name="e_wo_entrp">   -325.23390863 </i>
    <i name="e_0_energy">   -325.25431112 </i>
   </energy>
  </scstep>
  <scstep>
   <time name="diag">    4.79    4.79</time>
   <time name="diis">   15.63   15.63</time>
   <time name="orth">    0.97    0.97</time>
   <time name="total">   22.63   22.64</time>
   <energy>
    <i name="e_fr_energy">   -325.34275132 </i>
    <i name="e_wo_entrp">   -325.30168011 </i>
    <i name="e_0_energy">   -325.32221571 </i>
   </energy>
  </scstep>
  <scstep>
   <time name="diag">    4.78    4.78</time>
   <time name="diis">   15.61   15.62</time>
   <time name="orth">    0.98    0.98</time>
   <time name="total">   22.60   22.62</time>
   <energy>
    <i name="e_fr_energy">   -325.41352071 </i>
    <i name="e_wo_entrp">   -325.37212459 </i>
    <i name="e_0_energy">   -325.39282265 </i>
   </energy>
  </scstep>
  <scstep>
   <time name="diag">    4.78    4.78</time>
   <time name="diis">   15.66   15.66</time>
   <time name="orth">    0.97    0.97</time>
   <time name="total">   22.65   22.66</time>
   <energy>
    <i name="e_fr_energy">   -325.45229707 </i>
    <i name="e_wo_entrp">   -325.41093121 </i>
    <i name="e_0_energy">   -325.43161414 </i>
   </energy>
  </scstep>
  <scstep>
   <time name="diag">    4.78    4.78</time>
   <time name="diis">   15.56   15.57</time>
   <time name="orth">    0.97    0.97</time>
   <time name="total">   22.55   22.57</time>
   <energy>
    <i name="e_fr_energy">   -325.50088796 </i>
    <i name="e_wo_entrp">   -325.45925354 </i>
    <i name="e_0_energy">   -325.48007075 </i>
   </energy>
  </scstep>
  <scstep>
   <time name="diag">    4.78    4.78</time>
   <time name="diis">   15.54   15.54</time>
   <time name="orth">    0.97    0.97</time>
   <time name="total">   22.53   22.54</time>
   <energy>
    <i name="e_fr_energy">   -325.53278364 </i>
    <i name="e_wo_entrp">   -325.49112527 </i>
    <i name="e_0_energy">   -325.51195446 </i>
   </energy>
  </scstep>
  <scstep>
   <time name="diag">    4.78    4.78</time>
   <time name="diis">   14.70   14.71</time>
   <time name="orth">    0.97    0.97</time>
   <time name="total">   21.69   21.70</time>
   <energy>
    <i name="e_fr_energy">   -325.54987012 </i>
    <i name="e_wo_entrp">   -325.50790650 </i>
    <i name="e_0_energy">   -325.52888831 </i>
   </energy>
  </scstep>
  <scstep>
   <time name="diag">    4.77    4.77</time>
   <time name="diis">   12.89   12.90</time>
   <time name="orth">    0.97    0.97</time>
   <time name="total">   19.86   19.87</time>
   <energy>
    <i name="e_fr_energy">   -325.55445920 </i>
    <i name="e_wo_entrp">   -325.51264472 </i>
    <i name="e_0_energy">   -325.53355196 </i>
   </energy>
  </scstep>
  <scstep>
   <time name="diag">    4.77    4.77</time>
   <time name="diis">   12.53   12.54</time>
   <time name="orth">    0.97    0.97</time>
   <time name="total">   19.50   19.51</time>
   <energy>
    <i name="e_fr_energy">   -325.55652194 </i>
    <i name="e_wo_entrp">   -325.51432557 </i>
    <i name="e_0_energy">   -325.53542375 </i>
   </energy>
  </scstep>
  <scstep>
   <time name="diag">    4.78    4.78</time>
   <time name="diis">   10.51   10.51</time>
   <time name="orth">    0.97    0.97</time>
   <time name="total">   17.49   17.50</time>
   <energy>
    <i name="e_fr_energy">   -325.55583911 </i>
    <i name="e_wo_entrp">   -325.51361548 </i>
    <i name="e_0_energy">   -325.53472729 </i>
   </energy>
  </scstep>
  <scstep>
   <time name="diag">    4.77    4.77</time>
   <time name="diis">   10.09   10.09</time>
   <time name="orth">    0.97    0.97</time>
   <time name="total">   17.06   17.07</time>
   <energy>
    <i name="e_fr_energy">   -325.55480901 </i>
    <i name="e_wo_entrp">   -325.51255248 </i>
    <i name="e_0_energy">   -325.53368075 </i>
   </energy>
  </scstep>
  <scstep>
   <time name="diag">    4.77    4.77</time>
   <time name="diis">    9.76    9.76</time>
   <time name="orth">    0.97    0.97</time>
   <time name="total">   16.74   16.75</time>
   <energy>
    <i name="e_fr_energy">   -325.55461597 </i>
    <i name="e_wo_entrp">   -325.51224655 </i>
    <i name="e_0_energy">   -325.53343126 </i>
   </energy>
  </scstep>
  <scstep>
   <time name="diag">    4.78    4.78</time>
   <time name="diis">    9.58    9.58</time>
   <time name="orth">    0.97    0.97</time>
   <time name="total">   16.55   16.56</time>
   <energy>
    <i name="e_fr_energy">   -325.55439723 </i>
    <i name="e_wo_entrp">   -325.51196542 </i>
    <i name="e_0_energy">   -325.53318133 </i>
   </energy>
  </scstep>
  <scstep>
   <time name="diag">    4.78    4.78</time>
   <time name="diis">    9.59    9.60</time>
   <time name="orth">    0.97    0.97</time>
   <time name="total">   16.57   16.57</time>
   <energy>
    <i name="e_fr_energy">   -325.55412810 </i>
    <i name="e_wo_entrp">   -325.51164545 </i>
    <i name="e_0_energy">   -325.53288678 </i>
   </energy>
  </scstep>
  <scstep>
   <time name="diag">    4.78    4.78</time>
   <time name="diis">    9.72    9.73</time>
   <time name="orth">    0.97    0.97</time>
   <time name="total">   15.77   15.78</time>
   <energy>
    <i name="alphaZ">   1011.05067375 </i>
    <i name="ewald">  63605.46361336 </i>
    <i name="hartreedc"> -87041.97394399 </i>
    <i name="XCdc">    630.13534807 </i>
    <i name="pawpsdc">  31036.44833406 </i>
    <i name="pawaedc"> -30490.09348199 </i>
    <i name="eentropy">     -0.04254610 </i>
    <i name="bandstr">  -2150.76650001 </i>
    <i name="atom">  23074.22436774 </i>
    <i name="e_fr_energy">   -325.55413511 </i>
    <i name="e_wo_entrp">   -325.51158901 </i>
    <i name="e_0_energy">   -325.53286206 </i>
   </energy>
  </scstep>
  <structure>
   <crystal>
    <varray name="basis" >
     <v>       6.36215693       0.00000000       0.00000000 </v>
     <v>       0.00000000       6.38448299       0.00000000 </v>
     <v>       0.00000000       0.00000000      22.02159841 </v>
    </varray>
    <i name="volume">    894.49712699 </i>
    <varray name="rec_basis" >
     <v>       0.15717940       0.00000000       0.00000000 </v>
     <v>       0.00000000       0.15662975       0.00000000 </v>
     <v>       0.00000000       0.00000000       0.04540996 </v>
    </varray>
   </crystal>
   <varray name="positions" >
    <v>       0.08911000       0.35546000       0.00000000 </v>
    <v>       0.58911000       0.35546000       0.00000000 </v>
    <v>       0.33911000       0.04693000       0.05551000 </v>
    <v>       0.83911000       0.04693000       0.05551000 </v>
    <v>       0.33911000       0.66399000       0.05551000 </v>
    <v>       0.83911000       0.66399000       0.05551000 </v>
    <v>       0.08911000       0.35546000       0.11102000 </v>
    <v>       0.58911000       0.35546000       0.11102000 </v>
    <v>       0.58911000       0.85546000       0.14496000 </v>
    <v>       0.08911000       0.85546000       0.14496000 </v>
    <v>       0.33911000       0.16399000       0.20047000 </v>
    <v>       0.83911000       0.16399000       0.20047000 </v>
    <v>       0.33911000       0.54693000       0.20047000 </v>
    <v>       0.83911000       0.54693000       0.20047000 </v>
    <v>       0.08911000       0.85546000       0.25598000 </v>
    <v>       0.58911000       0.85546000       0.25598000 </v>
    <v>       0.08914000       0.35542000       0.28947000 </v>
    <v>       0.58914000       0.35542000       0.28947000 </v>
    <v>       0.33913000       0.04670000       0.34597000 </v>
    <v>       0.83913000       0.04670000       0.34597000 </v>
    <v>       0.33911000       0.66418000       0.34595000 </v>
    <v>       0.83911000       0.66418000       0.34595000 </v>
    <v>       0.08916000       0.35571000       0.39990000 </v>
    <v>       0.58916000       0.35571000       0.39990000 </v>
    <v>       0.08915000       0.85549000       0.43609000 </v>
    <v>       0.58915000       0.85549000       0.43609000 </v>
    <v>       0.33914000       0.16538000       0.49406000 </v>
    <v>       0.83914000       0.16538000       0.49406000 </v>
    <v>       0.33915000       0.54556000       0.49405000 </v>
    <v>       0.83915000       0.54556000       0.49405000 </v>
    <v>       0.08915000       0.85548000       0.54665000 </v>
    <v>       0.58915000       0.85548000       0.54665000 </v>
    <v>       0.58913000       0.35545000       0.48811000 </v>
    <v>       0.83915000       0.85545000       0.49288000 </v>
    <v>       0.33911000       0.35546000       0.05551000 </v>
    <v>       0.83911000       0.35546000       0.05551000 </v>
    <v>       0.08911000       0.85546000       0.05551000 </v>
    <v>       0.58911000       0.85546000       0.05551000 </v>
    <v>       0.08911000       0.35546000       0.20047000 </v>
    <v>       0.58911000       0.35546000       0.20047000 </v>
    <v>       0.33911000       0.85546000       0.20047000 </v>
    <v>       0.83911000       0.85546000       0.20047000 </v>
    <v>       0.83914000       0.35543000       0.34488000 </v>
    <v>       0.33914000       0.35543000       0.34488000 </v>
    <v>       0.08911000       0.85543000       0.34634000 </v>
    <v>       0.58911000       0.85543000       0.34634000 </v>
    <v>       0.08913000       0.35545000       0.48811000 </v>
    <v>       0.33915000       0.85545000       0.49288000 </v>
   </varray>
  </structure>
  <varray name="forces" >
   <v>      -0.00589205      -0.00103944       0.63159150 </v>
   <v>      -0.00056186      -0.00108773       0.63963553 </v>
   <v>       0.00229646       0.01202068      -0.64984622 </v>
   <v>       0.00906876       0.02878447      -0.63116184 </v>
   <v>      -0.00256687      -0.01018000      -0.65067082 </v>
   <v>       0.00425814      -0.02703982      -0.63208782 </v>
   <v>       0.01221138      -0.00039512       0.24437289 </v>
   <v>      -0.00140653      -0.00032394       0.25064551 </v>
   <v>       0.00372928       0.00114465      -0.11561637 </v>
   <v>       0.00806161       0.00070543      -0.17325827 </v>
   <v>      -0.00390937       0.04821953      -0.03332942 </v>
   <v>       0.01219381       0.04770943      -0.03577568 </v>
   <v>      -0.00171462      -0.04792894      -0.03410492 </v>
   <v>       0.01479044      -0.04747000      -0.03648915 </v>
   <v>      -0.08182682       0.00097650       0.42315850 </v>
   <v>       0.07408402       0.00099243       0.49848436 </v>
   <v>       0.01065672      -0.00153398      -0.15810000 </v>
   <v>      -0.04736203      -0.00147522       0.05551142 </v>
   <v>       0.01813896       0.07927106      -0.02430508 </v>
   <v>      -0.00062687       0.03350907       0.03806921 </v>
   <v>       0.01959423      -0.07816582      -0.02588896 </v>
   <v>       0.00064474      -0.03188281       0.03660868 </v>
   <v>      -0.24075436       0.00109880       0.15328588 </v>
   <v>       0.08619800       0.00534769      -2.24487919 </v>
   <v>      -0.97593647       0.00013450       0.00394048 </v>
   <v>       0.84019530       0.00026145      -0.09416409 </v>
   <v>      -0.43793113       0.42961970       0.72062034 </v>
   <v>       0.62080917      -1.25574241       0.14898625 </v>
   <v>      -0.43634805      -0.43389531       0.71998981 </v>
   <v>       0.62142279       1.25468158       0.15023478 </v>
   <v>      -1.03201679       0.00036842      -0.04244362 </v>
   <v>       1.21931286       0.00009882      -0.18536810 </v>
   <v>      -0.31558842      -0.00419213       1.57645174 </v>
   <v>      -0.40952783       0.00030140       1.09350965 </v>
   <v>      -0.01235843      -0.00131644      -0.84476904 </v>
   <v>       0.00811267      -0.00146696      -0.90631518 </v>
   <v>      -0.00056669      -0.00022372       1.53570695 </v>
   <v>      -0.01617617      -0.00037680       1.48646524 </v>
   <v>      -0.01576468      -0.00092667      -0.25959962 </v>
   <v>      -0.01079650      -0.00128052      -0.34254324 </v>
   <v>       0.00149242      -0.00147570      -0.25983659 </v>
   <v>      -0.00662047      -0.00145172      -0.21551749 </v>
   <v>      -0.53525527      -0.00006921       0.09396151 </v>
   <v>       0.58202740      -0.00047828       0.05376725 </v>
   <v>       0.24368285       0.00136990      -0.08101446 </v>
   <v>      -0.26474909       0.00116509      -0.13926493 </v>
   <v>       0.39596420       0.00008039      -0.81159725 </v>
   <v>       0.04731117       0.00355771      -0.92705013 </v>
  </varray>
  <varray name="stress" >
   <v>     -15.65165225       0.02323552       1.24892818 </v>
   <v>       0.02323538      -7.97281022      -0.01695637 </v>
   <v>       1.24892810      -0.01695638       5.36536276 </v>
  </varray>
  <energy>
   <i name="e_fr_energy">   -335.34965757 </i>
   <i name="e_wo_entrp">   -335.32838452 </i>
   <i name="e_0_energy">     -0.04254610 </i>
  </energy>
  <time name="totalsc">  895.89  896.35</time>
 </calculation>
 <calculation>
  <scstep>
   <time name="dav">   29.54   29.55</time>
   <time name="total">   30.77   30.78</time>
   <energy>
    <i name="alphaZ">   1011.05067375 </i>
    <i name="ewald">  63583.34854710 </i>
    <i name="hartreedc"> -87019.30065289 </i>
    <i name="XCdc">    630.12904051 </i>
    <i name="pawpsdc">  31036.71076390 </i>
    <i name="pawaedc"> -30490.35556408 </i>
    <i name="eentropy">     -0.04627260 </i>
    <i name="bandstr">  -2151.48400352 </i>
    <i name="atom">  23074.22436774 </i>
    <i name="e_fr_energy">   -325.72310008 </i>
    <i name="e_wo_entrp">   -325.67682748 </i>
    <i name="e_0_energy">   -325.69996378 </i>
   </energy>
  </scstep>
  <scstep>
   <time name="diag">    4.80    4.80</time>
   <time name="diis">   15.50   15.51</time>
   <time name="orth">    0.97    0.97</time>
   <time name="total">   22.50   22.51</time>
   <energy>
    <i name="e_fr_energy">   -325.88926442 </i>
    <i name="e_wo_entrp">   -325.84998205 </i>
    <i name="e_0_energy">   -325.86962324 </i>
   </energy>
  </scstep>
  <scstep>
   <time name="diag">    4.79    4.80</time>
   <time name="diis">   15.58   15.59</time>
   <time name="orth">    0.97    0.97</time>
   <time name="total">   22.58   22.59</time>
   <energy>
    <i name="e_fr_energy">   -325.76957975 </i>
    <i name="e_wo_entrp">   -325.72730248 </i>
    <i name="e_0_energy">   -325.74844112 </i>
   </energy>
  </scstep>
  <scstep>
   <time name="diag">    4.80    4.80</time>
   <time name="diis">   15.26   15.26</time>
   <time name="orth">    0.97    0.97</time>
   <time name="total">   22.26   22.27</time>
   <energy>
    <i name="e_fr_energy">   -325.75678968 </i>
    <i name="e_wo_entrp">   -325.71540885 </i>
    <i name="e_0_energy">   -325.73609926 </i>
   </energy>
  </scstep>
  <scstep>
   <time name="diag">    4.79    4.79</time>
   <time name="diis">   14.64   14.64</time>
   <time name="orth">    0.97    0.97</time>
   <time name="total">   21.63   21.64</time>
   <energy>
    <i name="e_fr_energy">   -325.75812611 </i>
    <i name="e_wo_entrp">   -325.71632219 </i>
    <i name="e_0_energy">   -325.73722415 </i>
   </energy>
  </scstep>
  <scstep>
   <time name="diag">    4.80    4.80</time>
   <time name="diis">   15.44   15.45</time>
   <time name="orth">    0.97    0.97</time>
   <time name="total">   22.43   22.44</time>
   <energy>
    <i name="e_fr_energy">   -325.76044633 </i>
    <i name="e_wo_entrp">   -325.71689657 </i>
    <i name="e_0_energy">   -325.73867145 </i>
   </energy>
  </scstep>
  <scstep>
   <time name="diag">    4.80    4.80</time>
   <time name="diis">   15.58   15.59</time>
   <time name="orth">    0.97    0.97</time>
   <time name="total">   22.58   22.59</time>
   <energy>
    <i name="e_fr_energy">   -325.75205615 </i>
    <i name="e_wo_entrp">   -325.71115558 </i>
    <i name="e_0_energy">   -325.73160586 </i>
   </energy>
  </scstep>
  <scstep>
   <time name="diag">    4.79    4.80</time>
   <time name="diis">   15.51   15.52</time>
   <time name="orth">    0.97    0.97</time>
   <time name="total">   22.50   22.51</time>
   <energy>
    <i name="e_fr_energy">   -325.73854261 </i>
    <i name="e_wo_entrp">   -325.69416196 </i>
    <i name="e_0_energy">   -325.71635229 </i>
   </energy>
  </scstep>
  <scstep>
   <time name="diag">    4.80    4.80</time>
   <time name="diis">   14.39   14.40</time>
   <time name="orth">    0.97    0.97</time>
   <time name="total">   21.39   21.40</time>
   <energy>
    <i name="e_fr_energy">   -325.73760783 </i>
    <i name="e_wo_entrp">   -325.69343199 </i>
    <i name="e_0_energy">   -325.71551991 </i>
   </energy>
  </scstep>
  <scstep>
   <time name="diag">    4.81    4.81</time>
   <time name="diis">   11.48   11.49</time>
   <time name="orth">    0.97    0.97</time>
   <time name="total">   18.49   18.50</time>
   <energy>
    <i name="e_fr_energy">   -325.73777044 </i>
    <i name="e_wo_entrp">   -325.69354620 </i>
    <i name="e_0_energy">   -325.71565832 </i>
   </energy>
  </scstep>
  <scstep>
   <time name="diag">    4.79    4.79</time>
   <time name="diis">   12.10   12.11</time>
   <time name="orth">    0.97    0.97</time>
   <time name="total">   19.09   19.10</time>
   <energy>
    <i name="e_fr_energy">   -325.73827238 </i>
    <i name="e_wo_entrp">   -325.69410232 </i>
    <i name="e_0_energy">   -325.71618735 </i>
   </energy>
  </scstep>
  <scstep>
   <time name="diag">    4.79    4.79</time>
   <time name="diis">   10.29   10.29</time>
   <time name="orth">    0.97    0.97</time>
   <time name="total">   17.28   17.29</time>
   <energy>
    <i name="e_fr_energy">   -325.73850139 </i>
    <i name="e_wo_entrp">   -325.69397291 </i>
    <i name="e_0_energy">   -325.71623715 </i>
   </energy>
  </scstep>
  <scstep>
   <time name="diag">    4.78    4.78</time>
   <time name="diis">    9.24    9.24</time>
   <time name="orth">    0.97    0.97</time>
   <time name="total">   16.21   16.22</time>
   <energy>
    <i name="e_fr_energy">   -325.73880787 </i>
    <i name="e_wo_entrp">   -325.69425843 </i>
    <i name="e_0_energy">   -325.71653315 </i>
   </energy>
  </scstep>
  <scstep>
   <time name="diag">    4.78    4.78</time>
   <time name="diis">    9.01    9.01</time>
   <time name="orth">    0.97    0.97</time>
   <time name="total">   15.98   15.99</time>
   <energy>
    <i name="e_fr_energy">   -325.73901292 </i>
    <i name="e_wo_entrp">   -325.69438391 </i>
    <i name="e_0_energy">   -325.71669842 </i>
   </energy>
  </scstep>
  <scstep>
   <time name="diag">    4.78    4.79</time>
   <time name="diis">    8.94    8.94</time>
   <time name="orth">    0.97    0.97</time>
   <time name="total">   15.93   15.93</time>
   <energy>
    <i name="e_fr_energy">   -325.73922497 </i>
    <i name="e_wo_entrp">   -325.69459323 </i>
    <i name="e_0_energy">   -325.71690910 </i>
   </energy>
  </scstep>
  <scstep>
   <time name="diag">    4.78    4.78</time>
   <time name="diis">    9.13    9.13</time>
   <time name="orth">    0.97    0.97</time>
   <time name="total">   16.10   16.11</time>
   <energy>
    <i name="e_fr_energy">   -325.73960086 </i>
    <i name="e_wo_entrp">   -325.69491189 </i>
    <i name="e_0_energy">   -325.71725637 </i>
   </energy>
  </scstep>
  <scstep>
   <time name="diag">    4.78    4.78</time>
   <time name="diis">    8.79    8.80</time>
   <time name="orth">    0.97    0.97</time>
   <time name="total">   14.85   14.86</time>
   <energy>
    <i name="alphaZ">   1011.05067375 </i>
    <i name="ewald">  63583.34854710 </i>
    <i name="hartreedc"> -87019.99006745 </i>
    <i name="XCdc">    630.15104964 </i>
    <i name="pawpsdc">  31048.52081543 </i>
    <i name="pawaedc"> -30502.04345178 </i>
    <i name="eentropy">     -0.04470745 </i>
    <i name="bandstr">  -2150.95692205 </i>
    <i name="atom">  23074.22436774 </i>
    <i name="e_fr_energy">   -325.73969507 </i>
    <i name="e_wo_entrp">   -325.69498762 </i>
    <i name="e_0_energy">   -325.71734135 </i>
   </energy>
  </scstep>
  <structure>
   <crystal>
    <varray name="basis" >
     <v>       6.36215693       0.00000000       0.00000000 </v>
     <v>       0.00000000       6.38448299       0.00000000 </v>
     <v>       0.00000000       0.00000000      22.02159841 </v>
    </varray>
    <i name="volume">    894.49712699 </i>
    <varray name="rec_basis" >
     <v>       0.15717940       0.00000000       0.00000000 </v>
     <v>       0.00000000       0.15662975       0.00000000 </v>
     <v>       0.00000000       0.00000000       0.04540996 </v>
    </varray>
   </crystal>
   <varray name="positions" >
    <v>       0.08911000       0.35546000       0.00000000 </v>
    <v>       0.58911000       0.35546000       0.00000000 </v>
    <v>       0.33911000       0.04693000       0.05551000 </v>
    <v>       0.83911000       0.04693000       0.05551000 </v>
    <v>       0.33911000       0.66399000       0.05551000 </v>
    <v>       0.83911000       0.66399000       0.05551000 </v>
    <v>       0.08911000       0.35546000       0.11102000 </v>
    <v>       0.58911000       0.35546000       0.11102000 </v>
    <v>       0.58911000       0.85546000       0.14496000 </v>
    <v>       0.08911000       0.85546000       0.14496000 </v>
    <v>       0.33911000       0.16399000       0.20047000 </v>
    <v>       0.83911000       0.16399000       0.20047000 </v>
    <v>       0.33911000       0.54693000       0.20047000 </v>
    <v>       0.83911000       0.54693000       0.20047000 </v>
    <v>       0.08911000       0.85546000       0.25598000 </v>
    <v>       0.58911000       0.85546000       0.25598000 </v>
    <v>       0.08915616       0.35541768       0.28940073 </v>
    <v>       0.58906817       0.35541777       0.28949432 </v>
    <v>       0.33915751       0.04681980       0.34595935 </v>
    <v>       0.83912905       0.04675064       0.34598668 </v>
    <v>       0.33913972       0.66406187       0.34593866 </v>
    <v>       0.83911098       0.66413182       0.34596604 </v>
    <v>       0.08879488       0.35571166       0.39996716 </v>
    <v>       0.58929072       0.35571808       0.39891643 </v>
    <v>       0.08766994       0.85549020       0.43609173 </v>
    <v>       0.59042420       0.85549040       0.43604874 </v>
    <v>       0.33847586       0.16602926       0.49437573 </v>
    <v>       0.84008149       0.16348226       0.49412528 </v>
    <v>       0.33848826       0.54490428       0.49436546 </v>
    <v>       0.84009242       0.54745613       0.49411582 </v>
    <v>       0.08758489       0.85548056       0.54663140 </v>
    <v>       0.59099915       0.85548015       0.54656878 </v>
    <v>       0.58865139       0.35544366       0.48880071 </v>
    <v>       0.83852893       0.85545046       0.49335911 </v>
    <v>       0.33911000       0.35546000       0.05551000 </v>
    <v>       0.83911000       0.35546000       0.05551000 </v>
    <v>       0.08911000       0.85546000       0.05551000 </v>
    <v>       0.58911000       0.85546000       0.05551000 </v>
    <v>       0.08911000       0.35546000       0.20047000 </v>
    <v>       0.58911000       0.35546000       0.20047000 </v>
    <v>       0.33911000       0.85546000       0.20047000 </v>
    <v>       0.83911000       0.85546000       0.20047000 </v>
    <v>       0.83832826       0.35542990       0.34492117 </v>
    <v>       0.34002267       0.35542928       0.34490356 </v>
    <v>       0.08947956       0.85543207       0.34630450 </v>
    <v>       0.58870849       0.85543176       0.34627898 </v>
    <v>       0.08973050       0.35545012       0.48775441 </v>
    <v>       0.33922175       0.85545538       0.49247382 </v>
   </varray>
  </structure>
  <varray name="forces" >
   <v>      -0.00602382      -0.00084198       0.62967983 </v>
   <v>      -0.00103423      -0.00091383       0.64149242 </v>
   <v>       0.00312521       0.00891875      -0.65049037 </v>
   <v>       0.00902508       0.02630676      -0.63311933 </v>
   <v>      -0.00178839      -0.00685422      -0.65131862 </v>
   <v>       0.00420426      -0.02435245      -0.63405698 </v>
   <v>       0.01141252      -0.00017082       0.24432060 </v>
   <v>       0.00406187      -0.00015465       0.25536813 </v>
   <v>       0.00881257       0.00138560      -0.11496454 </v>
   <v>       0.00574317       0.00090846      -0.17241931 </v>
   <v>      -0.00586991       0.04987408      -0.03450106 </v>
   <v>       0.01404953       0.05080393      -0.03618454 </v>
   <v>      -0.00367768      -0.04939202      -0.03524770 </v>
   <v>       0.01669728      -0.05041527      -0.03687285 </v>
   <v>      -0.06244835       0.00121133       0.41569613 </v>
   <v>       0.05115346       0.00119626       0.48558946 </v>
   <v>       0.01279591      -0.00061446      -0.02650895 </v>
   <v>      -0.03115053      -0.00108508      -0.03736452 </v>
   <v>       0.03433634       0.06539392      -0.02419374 </v>
   <v>      -0.01880541       0.00260997       0.01783738 </v>
   <v>       0.03440121      -0.06328386      -0.02557645 </v>
   <v>      -0.01734424      -0.00082832       0.01591597 </v>
   <v>      -0.21715977       0.00102026      -0.00813310 </v>
   <v>       0.07277348       0.00426773      -1.44509354 </v>
   <v>      -0.82600672       0.00076167      -0.01468161 </v>
   <v>       0.66755575      -0.00034185      -0.11972619 </v>
   <v>      -0.36472892       0.27800848       0.70848126 </v>
   <v>       0.52022475      -0.93916556       0.09564913 </v>
   <v>      -0.36578348      -0.28204718       0.70744639 </v>
   <v>       0.52164139       0.93710199       0.09609468 </v>
   <v>      -0.81994599       0.00009129      -0.05687767 </v>
   <v>       0.96273276      -0.00052878      -0.15733313 </v>
   <v>      -0.08728333      -0.00649704       1.16626614 </v>
   <v>      -0.22163099       0.00053051       0.88732603 </v>
   <v>      -0.01818154      -0.00117779      -0.84124942 </v>
   <v>       0.01286443      -0.00135296      -0.89968585 </v>
   <v>      -0.00108487      -0.00011014       1.53575727 </v>
   <v>      -0.01762236      -0.00027810       1.48416264 </v>
   <v>      -0.01703173      -0.00089191      -0.26570637 </v>
   <v>      -0.02059436      -0.00119576      -0.35418508 </v>
   <v>      -0.00301143      -0.00135950      -0.26932671 </v>
   <v>       0.00152396      -0.00133317      -0.21251367 </v>
   <v>      -0.20684824       0.00022434      -0.10024111 </v>
   <v>       0.21152553      -0.00008740      -0.12551896 </v>
   <v>       0.05592624       0.00098775      -0.04260505 </v>
   <v>      -0.07164968       0.00074078      -0.10706218 </v>
   <v>       0.22399224       0.00088789      -0.58803316 </v>
   <v>      -0.05387300       0.00204234      -0.66629169 </v>
  </varray>
  <varray name="stress" >
   <v>     -15.68504878       0.02706944       1.27883249 </v>
   <v>       0.02706944      -7.48566296      -0.02271138 </v>
   <v>       1.27883231      -0.02271137       5.39284404 </v>
  </varray>
  <energy>
   <i name="e_fr_energy">   -335.53401481 </i>
   <i name="e_wo_entrp">   -335.51166108 </i>
   <i name="e_0_energy">     -0.04470745 </i>
  </energy>
  <time name="totalsc">  373.76  373.97</time>
 </calculation>
 <calculation>
  <scstep>
   <time name="dav">   28.94   28.95</time>
   <time name="total">   30.16   30.18</time>
   <energy>
    <i name="alphaZ">   1011.05067375 </i>
    <i name="ewald">  63555.19474902 </i>
    <i name="hartreedc"> -86991.18518210 </i>
    <i name="XCdc">    630.15869412 </i>
    <i name="pawpsdc">  31048.46401106 </i>
    <i name="pawaedc"> -30501.98665533 </i>
    <i name="eentropy">     -0.04646984 </i>
    <i name="bandstr">  -2151.74649117 </i>
    <i name="atom">  23074.22436774 </i>
    <i name="e_fr_energy">   -325.87230273 </i>
    <i name="e_wo_entrp">   -325.82583290 </i>
    <i name="e_0_energy">   -325.84906782 </i>
   </energy>
  </scstep>
  <scstep>
   <time name="diag">    4.80    4.80</time>
   <time name="diis">   15.70   15.70</time>
   <time name="orth">    0.97    0.97</time>
   <time name="total">   22.70   22.71</time>
   <energy>
    <i name="e_fr_energy">   -326.17466002 </i>
    <i name="e_wo_entrp">   -326.13801819 </i>
    <i name="e_0_energy">   -326.15633911 </i>
   </energy>
  </scstep>
  <scstep>
   <time name="diag">    4.80    4.80</time>
   <time name="diis">   15.71   15.72</time>
   <time name="orth">    0.97    0.97</time>
   <time name="total">   22.71   22.73</time>
   <energy>
    <i name="e_fr_energy">   -325.93466759 </i>
    <i name="e_wo_entrp">   -325.89109513 </i>
    <i name="e_0_energy">   -325.91288136 </i>
   </energy>
  </scstep>
  <scstep>
   <time name="diag">    4.79    4.80</time>
   <time name="diis">   15.57   15.57</time>
   <time name="orth">    0.97    0.97</time>
   <time name="total">   22.57   22.58</time>
   <energy>
    <i name="e_fr_energy">   -325.91903758 </i>
    <i name="e_wo_entrp">   -325.87609938 </i>
    <i name="e_0_energy">   -325.89756848 </i>
   </energy>
  </scstep>
  <scstep>
   <time name="diag">    4.79    4.80</time>
   <time name="diis">   14.93   14.93</time>
   <time name="orth">    0.97    0.97</time>
   <time name="total">   21.92   21.94</time>
   <energy>
    <i name="e_fr_energy">   -325.92352196 </i>
    <i name="e_wo_entrp">   -325.88032443 </i>
    <i name="e_0_energy">   -325.90192319 </i>
   </energy>
  </scstep>
  <scstep>
   <time name="diag">    4.80    4.80</time>
   <time name="diis">   15.67   15.68</time>
   <time name="orth">    0.97    0.97</time>
   <time name="total">   22.67   22.68</time>
   <energy>
    <i name="e_fr_energy">   -325.93297594 </i>
    <i name="e_wo_entrp">   -325.88880235 </i>
    <i name="e_0_energy">   -325.91088915 </i>
   </energy>
  </scstep>
  <scstep>
   <time name="diag">    4.80    4.80</time>
   <time name="diis">   15.75   15.76</time>
   <time name="orth">    0.97    0.97</time>
   <time name="total">   22.76   22.77</time>
   <energy>
    <i name="e_fr_energy">   -325.92131354 </i>
    <i name="e_wo_entrp">   -325.88121006 </i>
    <i name="e_0_energy">   -325.90126180 </i>
   </energy>
  </scstep>
  <scstep>
   <time name="diag">    4.79    4.79</time>
   <time name="diis">   15.75   15.75</time>
   <time name="orth">    0.97    0.98</time>
   <time name="total">   22.74   22.76</time>
   <energy>
    <i name="e_fr_energy">   -325.89631094 </i>
    <i name="e_wo_entrp">   -325.85144456 </i>
    <i name="e_0_energy">   -325.87387775 </i>
   </energy>
  </scstep>
  <scstep>
   <time name="diag">    4.79    4.79</time>
   <time name="diis">   15.47   15.48</time>
   <time name="orth">    0.97    0.98</time>
   <time name="total">   22.47   22.48</time>
   <energy>
    <i name="e_fr_energy">   -325.89507445 </i>
    <i name="e_wo_entrp">   -325.85030360 </i>
    <i name="e_0_energy">   -325.87268903 </i>
   </energy>
  </scstep>
  <scstep>
   <time name="diag">    4.79    4.79</time>
   <time name="diis">   13.90   13.91</time>
   <time name="orth">    0.98    0.98</time>
   <time name="total">   20.90   20.91</time>
   <energy>
    <i name="e_fr_energy">   -325.89544727 </i>
    <i name="e_wo_entrp">   -325.85062524 </i>
    <i name="e_0_energy">   -325.87303626 </i>
   </energy>
  </scstep>
  <scstep>
   <time name="diag">    4.79    4.79</time>
   <time name="diis">   12.75   12.76</time>
   <time name="orth">    0.97    0.98</time>
   <time name="total">   19.75   19.76</time>
   <energy>
    <i name="e_fr_energy">   -325.89589005 </i>
    <i name="e_wo_entrp">   -325.85103325 </i>
    <i name="e_0_energy">   -325.87346165 </i>
   </energy>
  </scstep>
  <scstep>
   <time name="diag">    4.78    4.78</time>
   <time name="diis">   12.17   12.17</time>
   <time name="orth">    0.97    0.97</time>
   <time name="total">   18.23   18.24</time>
   <energy>
    <i name="alphaZ">   1011.05067375 </i>
    <i name="ewald">  63555.19474902 </i>
    <i name="hartreedc"> -86993.23666960 </i>
    <i name="XCdc">    630.21543952 </i>
    <i name="pawpsdc">  31075.87069614 </i>
    <i name="pawaedc"> -30529.25692242 </i>
    <i name="eentropy">     -0.04503172 </i>
    <i name="bandstr">  -2149.91322502 </i>
    <i name="atom">  23074.22436774 </i>
    <i name="e_fr_energy">   -325.89592258 </i>
    <i name="e_wo_entrp">   -325.85089086 </i>
    <i name="e_0_energy">   -325.87340672 </i>
   </energy>
  </scstep>
  <structure>
   <crystal>
    <varray name="basis" >
     <v>       6.36215693       0.00000000       0.00000000 </v>
     <v>       0.00000000       6.38448299       0.00000000 </v>
     <v>       0.00000000       0.00000000      22.02159841 </v>
    </varray>
    <i name="volume">    894.49712699 </i>
    <varray name="rec_basis" >
     <v>       0.15717940       0.00000000       0.00000000 </v>
     <v>       0.00000000       0.15662975       0.00000000 </v>
     <v>       0.00000000       0.00000000       0.04540996 </v>
    </varray>
   </crystal>
   <varray name="positions" >
    <v>       0.08911000       0.35546000       0.00000000 </v>
    <v>       0.58911000       0.35546000       0.00000000 </v>
    <v>       0.33911000       0.04693000       0.05551000 </v>
    <v>       0.83911000       0.04693000       0.05551000 </v>
    <v>       0.33911000       0.66399000       0.05551000 </v>
    <v>       0.83911000       0.66399000       0.05551000 </v>
    <v>       0.08911000       0.35546000       0.11102000 </v>
    <v>       0.58911000       0.35546000       0.11102000 </v>
    <v>       0.58911000       0.85546000       0.14496000 </v>
    <v>       0.08911000       0.85546000       0.14496000 </v>
    <v>       0.33911000       0.16399000       0.20047000 </v>
    <v>       0.83911000       0.16399000       0.20047000 </v>
    <v>       0.33911000       0.54693000       0.20047000 </v>
    <v>       0.83911000       0.54693000       0.20047000 </v>
    <v>       0.08911000       0.85546000       0.25598000 </v>
    <v>       0.58911000       0.85546000       0.25598000 </v>
    <v>       0.08917753       0.35541462       0.28930913 </v>
    <v>       0.58897320       0.35541482       0.28952648 </v>
    <v>       0.33919388       0.04697821       0.34594527 </v>
    <v>       0.83912779       0.04681760       0.34600874 </v>
    <v>       0.33917901       0.66390567       0.34592366 </v>
    <v>       0.83911227       0.66406810       0.34598725 </v>
    <v>       0.08831209       0.35571386       0.40005597 </v>
    <v>       0.58946358       0.35572877       0.39761585 </v>
    <v>       0.08571285       0.85549047       0.43609401 </v>
    <v>       0.59210908       0.85549092       0.43599419 </v>
    <v>       0.33759765       0.16688779       0.49479323 </v>
    <v>       0.84132643       0.16097287       0.49421159 </v>
    <v>       0.33761323       0.54403721       0.49478259 </v>
    <v>       0.84133859       0.54996341       0.49420286 </v>
    <v>       0.08551534       0.85548129       0.54660681 </v>
    <v>       0.59344430       0.85548035       0.54646139 </v>
    <v>       0.58801853       0.35543529       0.48971403 </v>
    <v>       0.83770768       0.85545106       0.49399264 </v>
    <v>       0.33911000       0.35546000       0.05551000 </v>
    <v>       0.83911000       0.35546000       0.05551000 </v>
    <v>       0.08911000       0.85546000       0.05551000 </v>
    <v>       0.58911000       0.85546000       0.05551000 </v>
    <v>       0.08911000       0.35546000       0.20047000 </v>
    <v>       0.58911000       0.35546000       0.20047000 </v>
    <v>       0.33911000       0.85546000       0.20047000 </v>
    <v>       0.83911000       0.85546000       0.20047000 </v>
    <v>       0.83725489       0.35542976       0.34497561 </v>
    <v>       0.34118984       0.35542832       0.34493471 </v>
    <v>       0.08996823       0.85543481       0.34625757 </v>
    <v>       0.58817758       0.85543409       0.34619830 </v>
    <v>       0.09052455       0.35545028       0.48728420 </v>
    <v>       0.33931663       0.85546249       0.49193673 </v>
   </varray>
  </structure>
  <varray name="forces" >
   <v>      -0.00586694      -0.00089409       0.62873782 </v>
   <v>      -0.00241596      -0.00094603       0.64452965 </v>
   <v>       0.00415696       0.00620370      -0.64919535 </v>
   <v>       0.00811707       0.02308781      -0.63349893 </v>
   <v>      -0.00077336      -0.00430331      -0.65003788 </v>
   <v>       0.00326546      -0.02128103      -0.63444319 </v>
   <v>       0.01106095      -0.00018977       0.24663299 </v>
   <v>       0.00956325      -0.00019189       0.26036262 </v>
   <v>       0.01351941       0.00138214      -0.11535243 </v>
   <v>       0.00342666       0.00091977      -0.16632697 </v>
   <v>      -0.00820428       0.04994108      -0.03525162 </v>
   <v>       0.01575948       0.05144479      -0.03666640 </v>
   <v>      -0.00603331      -0.04966330      -0.03596122 </v>
   <v>       0.01845838      -0.05123746      -0.03730842 </v>
   <v>      -0.03453598       0.00122260       0.40593224 </v>
   <v>       0.01859218       0.00114299       0.46467048 </v>
   <v>       0.01656773      -0.00049794       0.16200936 </v>
   <v>      -0.00984034      -0.00069290      -0.16411500 </v>
   <v>       0.05467056       0.05786981      -0.02338267 </v>
   <v>      -0.04273746      -0.02841547      -0.00979206 </v>
   <v>       0.05462977      -0.05575510      -0.02461854 </v>
   <v>      -0.04201428       0.03055898      -0.01201931 </v>
   <v>      -0.18942141       0.00064670      -0.23763191 </v>
   <v>       0.05100625       0.00544619      -0.46071677 </v>
   <v>      -0.61498248       0.00067053      -0.04508180 </v>
   <v>       0.44083298       0.00069342      -0.14731019 </v>
   <v>      -0.27631064       0.06679858       0.68620531 </v>
   <v>       0.38807338      -0.51945026       0.02406245 </v>
   <v>      -0.27531090      -0.06629947       0.68487332 </v>
   <v>       0.38844954       0.51498651       0.02646930 </v>
   <v>      -0.54323862      -0.00022602      -0.05097577 </v>
   <v>       0.58916068      -0.00064082      -0.07256227 </v>
   <v>       0.20677031      -0.00387120       0.74206536 </v>
   <v>       0.07348485      -0.00100380       0.57184733 </v>
   <v>      -0.02529644      -0.00125261      -0.84643619 </v>
   <v>       0.01887752      -0.00143758      -0.90033608 </v>
   <v>      -0.00186152      -0.00020445       1.53583905 </v>
   <v>      -0.01763263      -0.00038676       1.48356330 </v>
   <v>      -0.01741067      -0.00110442      -0.27285480 </v>
   <v>      -0.03268219      -0.00133922      -0.36835974 </v>
   <v>      -0.00889347      -0.00146012      -0.28260437 </v>
   <v>       0.01169272      -0.00142896      -0.20837657 </v>
   <v>       0.25869366       0.00043020      -0.38906089 </v>
   <v>      -0.30524390       0.00110460      -0.38236280 </v>
   <v>      -0.19488451       0.00057708       0.00405673 </v>
   <v>       0.18890621       0.00083761      -0.06911656 </v>
   <v>      -0.00062222       0.00017180      -0.26690186 </v>
   <v>      -0.19152246      -0.00196291      -0.34319875 </v>
  </varray>
  <varray name="stress" >
   <v>     -15.22135454       0.02832369       1.27892142 </v>
   <v>       0.02832365      -6.41299234      -0.01411539 </v>
   <v>       1.27892151      -0.01411542       5.91662693 </v>
  </varray>
  <energy>
   <i name="e_fr_energy">   -335.68862991 </i>
   <i name="e_wo_entrp">   -335.66611404 </i>
   <i name="e_0_energy">     -0.04503172 </i>
  </energy>
  <time name="totalsc">  301.07  301.24</time>
 </calculation>
 <calculation>
  <scstep>
   <time name="dav">   28.63   28.64</time>
   <time name="total">   29.86   29.87</time>
   <energy>
    <i name="alphaZ">   1011.05067375 </i>
    <i name="ewald">  63502.49330122 </i>
    <i name="hartreedc"> -86938.03964135 </i>
    <i name="XCdc">    630.27351486 </i>
    <i name="pawpsdc">  31075.51273420 </i>
    <i name="pawaedc"> -30528.90018940 </i>
    <i name="eentropy">     -0.04467740 </i>
    <i name="bandstr">  -2152.37894588 </i>
    <i name="atom">  23074.22436774 </i>
    <i name="e_fr_energy">   -325.80886226 </i>
    <i name="e_wo_entrp">   -325.76418486 </i>
    <i name="e_0_energy">   -325.78652356 </i>
   </energy>
  </scstep>
  <scstep>
   <time name="diag">    4.81    4.81</time>
   <time name="diis">   15.74   15.74</time>
   <time name="orth">    0.97    0.98</time>
   <time name="total">   22.76   22.77</time>
   <energy>
    <i name="e_fr_energy">   -326.62480649 </i>
    <i name="e_wo_entrp">   -326.59149808 </i>
    <i name="e_0_energy">   -326.60815229 </i>
   </energy>
  </scstep>
  <scstep>
   <time name="diag">    4.81    4.81</time>
   <time name="diis">   15.72   15.72</time>
   <time name="orth">    0.98    0.98</time>
   <time name="total">   22.74   22.76</time>
   <energy>
    <i name="e_fr_energy">   -326.02346380 </i>
    <i name="e_wo_entrp">   -325.98152541 </i>
    <i name="e_0_energy">   -326.00249461 </i>
   </energy>
  </scstep>
  <scstep>
   <time name="diag">    4.81    4.81</time>
   <time name="diis">   15.86   15.87</time>
   <time name="orth">    0.97    0.98</time>
   <time name="total">   22.89   22.90</time>
   <energy>
    <i name="e_fr_energy">   -325.96399945 </i>
    <i name="e_wo_entrp">   -325.91907404 </i>
    <i name="e_0_energy">   -325.94153674 </i>
   </energy>
  </scstep>
  <scstep>
   <time name="diag">    4.81    4.81</time>
   <time name="diis">   15.59   15.60</time>
   <time name="orth">    0.97    0.98</time>
   <time name="total">   22.61   22.62</time>
   <energy>
    <i name="e_fr_energy">   -326.01292382 </i>
    <i name="e_wo_entrp">   -325.96966031 </i>
    <i name="e_0_energy">   -325.99129206 </i>
   </energy>
  </scstep>
  <scstep>
   <time name="diag">    4.81    4.81</time>
   <time name="diis">   15.70   15.71</time>
   <time name="orth">    0.97    0.98</time>
   <time name="total">   22.72   22.74</time>
   <energy>
    <i name="e_fr_energy">   -326.03303036 </i>
    <i name="e_wo_entrp">   -325.99387518 </i>
    <i name="e_0_energy">   -326.01345277 </i>
   </energy>
  </scstep>
  <scstep>
   <time name="diag">    4.80    4.80</time>
   <time name="diis">   15.70   15.70</time>
   <time name="orth">    0.97    0.97</time>
   <time name="total">   22.70   22.72</time>
   <energy>
    <i name="e_fr_energy">   -325.98054859 </i>
    <i name="e_wo_entrp">   -325.94539493 </i>
    <i name="e_0_energy">   -325.96297176 </i>
   </energy>
  </scstep>
  <scstep>
   <time name="diag">    4.80    4.80</time>
   <time name="diis">   15.69   15.70</time>
   <time name="orth">    0.97    0.97</time>
   <time name="total">   22.70   22.71</time>
   <energy>
    <i name="e_fr_energy">   -325.91070602 </i>
    <i name="e_wo_entrp">   -325.86988965 </i>
    <i name="e_0_energy">   -325.89029783 </i>
   </energy>
  </scstep>
  <scstep>
   <time name="diag">    4.80    4.80</time>
   <time name="diis">   15.70   15.71</time>
   <time name="orth">    0.97    0.97</time>
   <time name="total">   22.71   22.72</time>
   <energy>
    <i name="e_fr_energy">   -325.90261674 </i>
    <i name="e_wo_entrp">   -325.86220399 </i>
    <i name="e_0_energy">   -325.88241036 </i>
   </energy>
  </scstep>
  <scstep>
   <time name="diag">    4.80    4.80</time>
   <time name="diis">   15.70   15.71</time>
   <time name="orth">    0.98    0.98</time>
   <time name="total">   22.71   22.73</time>
   <energy>
    <i name="e_fr_energy">   -325.91008063 </i>
    <i name="e_wo_entrp">   -325.86941399 </i>
    <i name="e_0_energy">   -325.88974731 </i>
   </energy>
  </scstep>
  <scstep>
   <time name="diag">    4.80    4.80</time>
   <time name="diis">   15.32   15.33</time>
   <time name="orth">    0.97    0.97</time>
   <time name="total">   22.32   22.34</time>
   <energy>
    <i name="e_fr_energy">   -325.91656268 </i>
    <i name="e_wo_entrp">   -325.87527993 </i>
    <i name="e_0_energy">   -325.89592131 </i>
   </energy>
  </scstep>
  <scstep>
   <time name="diag">    4.80    4.80</time>
   <time name="diis">   15.14   15.15</time>
   <time name="orth">    0.97    0.97</time>
   <time name="total">   22.14   22.15</time>
   <energy>
    <i name="e_fr_energy">   -325.91608899 </i>
    <i name="e_wo_entrp">   -325.87450361 </i>
    <i name="e_0_energy">   -325.89529630 </i>
   </energy>
  </scstep>
  <scstep>
   <time name="diag">    4.80    4.80</time>
   <time name="diis">   13.60   13.60</time>
   <time name="orth">    0.97    0.97</time>
   <time name="total">   20.60   20.61</time>
   <energy>
    <i name="e_fr_energy">   -325.91420095 </i>
    <i name="e_wo_entrp">   -325.87268855 </i>
    <i name="e_0_energy">   -325.89344475 </i>
   </energy>
  </scstep>
  <scstep>
   <time name="diag">    4.80    4.80</time>
   <time name="diis">   12.03   12.03</time>
   <time name="orth">    0.97    0.97</time>
   <time name="total">   19.03   19.04</time>
   <energy>
    <i name="e_fr_energy">   -325.91186597 </i>
    <i name="e_wo_entrp">   -325.87011028 </i>
    <i name="e_0_energy">   -325.89098813 </i>
   </energy>
  </scstep>
  <scstep>
   <time name="diag">    4.80    4.81</time>
   <time name="diis">   13.15   13.16</time>
   <time name="orth">    0.97    0.97</time>
   <time name="total">   20.16   20.17</time>
   <energy>
    <i name="e_fr_energy">   -325.90799144 </i>
    <i name="e_wo_entrp">   -325.86598878 </i>
    <i name="e_0_energy">   -325.88699011 </i>
   </energy>
  </scstep>
  <scstep>
   <time name="diag">    4.79    4.80</time>
   <time name="diis">   10.70   10.70</time>
   <time name="orth">    0.97    0.97</time>
   <time name="total">   17.70   17.71</time>
   <energy>
    <i name="e_fr_energy">   -325.90645669 </i>
    <i name="e_wo_entrp">   -325.86432416 </i>
    <i name="e_0_energy">   -325.88539042 </i>
   </energy>
  </scstep>
  <scstep>
   <time name="diag">    4.78    4.78</time>
   <time name="diis">    9.41    9.41</time>
   <time name="orth">    0.97    0.97</time>
   <time name="total">   16.39   16.40</time>
   <energy>
    <i name="e_fr_energy">   -325.90739905 </i>
    <i name="e_wo_entrp">   -325.86521969 </i>
    <i name="e_0_energy">   -325.88630937 </i>
   </energy>
  </scstep>
  <scstep>
   <time name="diag">    4.78    4.78</time>
   <time name="diis">    9.27    9.28</time>
   <time name="orth">    0.97    0.97</time>
   <time name="total">   16.26   16.27</time>
   <energy>
    <i name="e_fr_energy">   -325.90845975 </i>
    <i name="e_wo_entrp">   -325.86624781 </i>
    <i name="e_0_energy">   -325.88735378 </i>
   </energy>
  </scstep>
  <scstep>
   <time name="diag">    4.79    4.79</time>
   <time name="diis">    9.35    9.35</time>
   <time name="orth">    0.97    0.97</time>
   <time name="total">   16.34   16.35</time>
   <energy>
    <i name="e_fr_energy">   -325.91017568 </i>
    <i name="e_wo_entrp">   -325.86792754 </i>
    <i name="e_0_energy">   -325.88905161 </i>
   </energy>
  </scstep>
  <scstep>
   <time name="diag">    4.79    4.79</time>
[...]
       <r>   -20.6151     0.0000     0.0000 </r>
       <r>   -20.5038     0.0000     0.0000 </r>
       <r>   -20.3925     0.0000     0.0000 </r>
       <r>   -20.2812     0.0000     0.0000 </r>
       <r>   -20.1699     0.0069     0.0008 </r>
       <r>   -20.0586     0.4633     0.0523 </r>
       <r>   -19.9473     1.6238     0.2331 </r>
       <r>   -19.8360     2.0925     0.4659 </r>
       <r>   -19.7247     2.0804     0.6975 </r>
       <r>   -19.6134     3.9740     1.1398 </r>
       <r>   -19.5021     6.2653     1.8371 </r>
       <r>   -19.3908     5.2718     2.4238 </r>
       <r>   -19.2795     9.6260     3.4951 </r>
       <r>   -19.1682     7.0915     4.2844 </r>
       <r>   -19.0569    12.0699     5.6277 </r>
       <r>   -18.9456    14.2516     7.2139 </r>
       <r>   -18.8343    17.5593     9.1682 </r>
       <r>   -18.7230    19.9775    11.3916 </r>
       <r>   -18.6118    17.0283    13.2868 </r>
       <r>   -18.5005    23.4952    15.9017 </r>
       <r>   -18.3892    29.5890    19.1949 </r>
       <r>   -18.2779    25.7728    22.0633 </r>
       <r>   -18.1666    20.1777    24.3090 </r>
       <r>   -18.0553     5.9045    24.9661 </r>
       <r>   -17.9440     8.3244    25.8926 </r>
       <r>   -17.8327     7.6176    26.7404 </r>
       <r>   -17.7214     8.4184    27.6774 </r>
       <r>   -17.6101     2.5568    27.9619 </r>
       <r>   -17.4988     0.3418    28.0000 </r>
       <r>   -17.3875     0.1185    28.0132 </r>
       <r>   -17.2762     5.6664    28.6438 </r>
       <r>   -17.1649     4.6218    29.1582 </r>
       <r>   -17.0536     6.3209    29.8617 </r>
       <r>   -16.9423     1.2416    29.9999 </r>
       <r>   -16.8310     0.0742    30.0081 </r>
       <r>   -16.7197     8.1482    30.9150 </r>
       <r>   -16.6084     9.5168    31.9742 </r>
       <r>   -16.4971     0.2320    32.0000 </r>
       <r>   -16.3858     0.0000    32.0000 </r>
       <r>   -16.2745     0.0000    32.0000 </r>
       <r>   -16.1632     0.0000    32.0000 </r>
       <r>   -16.0519     0.0000    32.0000 </r>
       <r>   -15.9406     0.0000    32.0000 </r>
       <r>   -15.8293     0.0000    32.0000 </r>
       <r>   -15.7180     0.0000    32.0000 </r>
       <r>   -15.6067     0.0000    32.0000 </r>
       <r>   -15.4955     0.0000    32.0000 </r>
       <r>   -15.3842     0.0000    32.0000 </r>
       <r>   -15.2729     0.0000    32.0000 </r>
       <r>   -15.1616     0.0000    32.0000 </r>
       <r>   -15.0503     0.0000    32.0000 </r>
       <r>   -14.9390     0.0000    32.0000 </r>
       <r>   -14.8277     0.0000    32.0000 </r>
       <r>   -14.7164     0.0000    32.0000 </r>
       <r>   -14.6051     0.0000    32.0000 </r>
       <r>   -14.4938     0.0000    32.0000 </r>
       <r>   -14.3825     0.0000    32.0000 </r>
       <r>   -14.2712     0.0000    32.0000 </r>
       <r>   -14.1599     0.0000    32.0000 </r>
       <r>   -14.0486     0.0000    32.0000 </r>
       <r>   -13.9373     0.0000    32.0000 </r>
       <r>   -13.8260     0.0000    32.0000 </r>
       <r>   -13.7147     0.0000    32.0000 </r>
       <r>   -13.6034     0.0000    32.0000 </r>
       <r>   -13.4921     0.0000    32.0000 </r>
       <r>   -13.3808     0.0000    32.0000 </r>
       <r>   -13.2695     0.0000    32.0000 </r>
       <r>   -13.1582     0.0000    32.0000 </r>
       <r>   -13.0469     0.0000    32.0000 </r>
       <r>   -12.9356     0.0000    32.0000 </r>
       <r>   -12.8243     0.0000    32.0000 </r>
       <r>   -12.7130     0.0000    32.0000 </r>
       <r>   -12.6017     0.0000    32.0000 </r>
       <r>   -12.4904     0.0000    32.0000 </r>
       <r>   -12.3792     0.0000    32.0000 </r>
       <r>   -12.2679     0.0000    32.0000 </r>
       <r>   -12.1566     0.0000    32.0000 </r>
       <r>   -12.0453     0.0000    32.0000 </r>
       <r>   -11.9340     0.0000    32.0000 </r>
       <r>   -11.8227     0.0000    32.0000 </r>
       <r>   -11.7114     0.0000    32.0000 </r>
       <r>   -11.6001     0.0000    32.0000 </r>
       <r>   -11.4888     0.0000    32.0000 </r>
       <r>   -11.3775     0.0000    32.0000 </r>
       <r>   -11.2662     0.0000    32.0000 </r>
       <r>   -11.1549     0.0000    32.0000 </r>
       <r>   -11.0436     0.0000    32.0000 </r>
       <r>   -10.9323     0.0000    32.0000 </r>
       <r>   -10.8210     0.0000    32.0000 </r>
       <r>   -10.7097     0.0000    32.0000 </r>
       <r>   -10.5984     0.0000    32.0000 </r>
       <r>   -10.4871     0.0000    32.0000 </r>
       <r>   -10.3758     0.0000    32.0000 </r>
       <r>   -10.2645     0.0000    32.0000 </r>
       <r>   -10.1532     0.0000    32.0000 </r>
       <r>   -10.0419     0.0000    32.0000 </r>
       <r>    -9.9306     0.0000    32.0000 </r>
       <r>    -9.8193     0.0000    32.0000 </r>
       <r>    -9.7080     0.0000    32.0000 </r>
       <r>    -9.5967     0.0000    32.0000 </r>
       <r>    -9.4854     0.0000    32.0000 </r>
       <r>    -9.3741     0.0000    32.0000 </r>
       <r>    -9.2629     0.0000    32.0000 </r>
       <r>    -9.1516     0.0000    32.0000 </r>
       <r>    -9.0403     0.0000    32.0000 </r>
       <r>    -8.9290     0.0000    32.0000 </r>
       <r>    -8.8177     0.0004    32.0000 </r>
       <r>    -8.7064     0.4017    32.0447 </r>
       <r>    -8.5951     1.0246    32.1588 </r>
       <r>    -8.4838     2.1461    32.3976 </r>
       <r>    -8.3725     1.3873    32.5520 </r>
       <r>    -8.2612     1.1995    32.6855 </r>
       <r>    -8.1499     4.3696    33.1718 </r>
       <r>    -8.0386    10.6575    34.3580 </r>
       <r>    -7.9273     9.9691    35.4675 </r>
       <r>    -7.8160     2.5162    35.7476 </r>
       <r>    -7.7047     2.2305    35.9958 </r>
       <r>    -7.5934    10.9772    37.2175 </r>
       <r>    -7.4821     7.3908    38.0401 </r>
       <r>    -7.3708    10.2288    39.1785 </r>
       <r>    -7.2595    13.0052    40.6260 </r>
       <r>    -7.1482     9.7300    41.7089 </r>
       <r>    -7.0369    19.2096    43.8468 </r>
       <r>    -6.9256    31.9973    47.4080 </r>
       <r>    -6.8143    32.7888    51.0573 </r>
       <r>    -6.7030    21.3616    53.4348 </r>
       <r>    -6.5917    17.2699    55.3568 </r>
       <r>    -6.4804    12.8330    56.7851 </r>
       <r>    -6.3691    15.5535    58.5162 </r>
       <r>    -6.2578    12.2159    59.8757 </r>
       <r>    -6.1466    13.6135    61.3909 </r>
       <r>    -6.0353    16.0963    63.1823 </r>
       <r>    -5.9240    14.0120    64.7418 </r>
       <r>    -5.8127     9.7299    65.8247 </r>
       <r>    -5.7014    13.6750    67.3467 </r>
       <r>    -5.5901    16.3644    69.1680 </r>
       <r>    -5.4788     8.5219    70.1165 </r>
       <r>    -5.3675    12.5991    71.5187 </r>
       <r>    -5.2562    12.3666    72.8951 </r>
       <r>    -5.1449    10.7291    74.0892 </r>
       <r>    -5.0336    12.5951    75.4910 </r>
       <r>    -4.9223    11.0152    76.7169 </r>
       <r>    -4.8110    17.0070    78.6097 </r>
       <r>    -4.6997    16.3332    80.4276 </r>
       <r>    -4.5884    18.8256    82.5228 </r>
       <r>    -4.4771    18.8822    84.6243 </r>
       <r>    -4.3658    14.9898    86.2926 </r>
       <r>    -4.2545    20.2470    88.5460 </r>
       <r>    -4.1432    21.2504    90.9111 </r>
       <r>    -4.0319    23.3961    93.5150 </r>
       <r>    -3.9206    19.3009    95.6632 </r>
       <r>    -3.8093    18.4440    97.7159 </r>
       <r>    -3.6980    17.7328    99.6895 </r>
       <r>    -3.5867    16.9716   101.5784 </r>
       <r>    -3.4754    17.1964   103.4923 </r>
       <r>    -3.3641    15.6273   105.2315 </r>
       <r>    -3.2528    13.5286   106.7372 </r>
       <r>    -3.1415    13.0819   108.1932 </r>
       <r>    -3.0303    14.8467   109.8456 </r>
       <r>    -2.9190    10.9601   111.0654 </r>
       <r>    -2.8077    17.6630   113.0312 </r>
       <r>    -2.6964    11.9063   114.3564 </r>
       <r>    -2.5851    13.9042   115.9038 </r>
       <r>    -2.4738    11.4768   117.1812 </r>
       <r>    -2.3625    13.7804   118.7149 </r>
       <r>    -2.2512    12.8111   120.1407 </r>
       <r>    -2.1399    12.1944   121.4979 </r>
       <r>    -2.0286    11.3424   122.7603 </r>
       <r>    -1.9173    17.2043   124.6750 </r>
       <r>    -1.8060     9.6059   125.7441 </r>
       <r>    -1.6947    10.8547   126.9522 </r>
       <r>    -1.5834     6.8329   127.7127 </r>
       <r>    -1.4721     7.2788   128.5228 </r>
       <r>    -1.3608    11.1140   129.7598 </r>
       <r>    -1.2495    14.1227   131.3316 </r>
       <r>    -1.1382    14.1068   132.9016 </r>
       <r>    -1.0269    17.2035   134.8163 </r>
       <r>    -0.9156    23.7761   137.4625 </r>
       <r>    -0.8043    29.9815   140.7993 </r>
       <r>    -0.6930    26.8838   143.7914 </r>
       <r>    -0.5817    24.4581   146.5135 </r>
       <r>    -0.4704    21.5553   148.9125 </r>
       <r>    -0.3591    21.2004   151.2720 </r>
       <r>    -0.2478    13.9691   152.8268 </r>
       <r>    -0.1365    13.1258   154.2876 </r>
       <r>    -0.0252    14.0043   155.8462 </r>
       <r>     0.0860    13.7938   157.3814 </r>
       <r>     0.1973    11.7700   158.6914 </r>
       <r>     0.3086    11.4911   159.9703 </r>
       <r>     0.4199    10.4773   161.1364 </r>
       <r>     0.5312    13.2131   162.6070 </r>
       <r>     0.6425    12.3620   163.9828 </r>
       <r>     0.7538    13.8398   165.5231 </r>
       <r>     0.8651    14.8035   167.1707 </r>
       <r>     0.9764    15.6121   168.9083 </r>
       <r>     1.0877    16.8988   170.7890 </r>
       <r>     1.1990    12.7575   172.2089 </r>
       <r>     1.3103    15.1224   173.8920 </r>
       <r>     1.4216    12.5916   175.2934 </r>
       <r>     1.5329    11.1217   176.5312 </r>
       <r>     1.6442     9.9825   177.6422 </r>
       <r>     1.7555    11.5831   178.9314 </r>
       <r>     1.8668     5.6669   179.5621 </r>
       <r>     1.9781     8.0070   180.4532 </r>
       <r>     2.0894     6.2470   181.1485 </r>
       <r>     2.2007     6.8283   181.9084 </r>
       <r>     2.3120     3.9339   182.3463 </r>
       <r>     2.4233     4.4268   182.8390 </r>
       <r>     2.5346     3.1682   183.1916 </r>
       <r>     2.6459     5.3062   183.7821 </r>
       <r>     2.7572     4.1143   184.2400 </r>
       <r>     2.8685     7.5121   185.0761 </r>
       <r>     2.9798     8.0431   185.9713 </r>
       <r>     3.0911     8.6771   186.9370 </r>
       <r>     3.2023     5.8362   187.5866 </r>
       <r>     3.3136    10.0834   188.7088 </r>
       <r>     3.4249     5.7867   189.3528 </r>
       <r>     3.5362     6.3068   190.0548 </r>
       <r>     3.6475     7.5646   190.8967 </r>
       <r>     3.7588     7.7934   191.7641 </r>
       <r>     3.8701     5.2379   192.3470 </r>
       <r>     3.9814     8.5190   193.2952 </r>
       <r>     4.0927     9.6902   194.3736 </r>
       <r>     4.2040     8.5645   195.3268 </r>
       <r>     4.3153     9.8509   196.4232 </r>
       <r>     4.4266     8.7627   197.3985 </r>
       <r>     4.5379    11.0480   198.6281 </r>
       <r>     4.6492    10.6135   199.8093 </r>
       <r>     4.7605     8.1395   200.7152 </r>
       <r>     4.8718    11.1802   201.9595 </r>
       <r>     4.9831    12.6754   203.3703 </r>
       <r>     5.0944     6.8760   204.1355 </r>
       <r>     5.2057     4.5453   204.6414 </r>
       <r>     5.3170     6.5999   205.3760 </r>
       <r>     5.4283     7.8939   206.2545 </r>
       <r>     5.5396     3.9025   206.6889 </r>
       <r>     5.6509     3.8350   207.1157 </r>
       <r>     5.7622     2.1360   207.3534 </r>
       <r>     5.8735     3.4104   207.7330 </r>
       <r>     5.9848     3.6525   208.1395 </r>
       <r>     6.0961     4.6178   208.6534 </r>
       <r>     6.2074     4.1054   209.1103 </r>
       <r>     6.3186     2.7361   209.4149 </r>
       <r>     6.4299     1.1401   209.5418 </r>
       <r>     6.5412     4.5781   210.0513 </r>
       <r>     6.6525     2.3472   210.3125 </r>
       <r>     6.7638     2.0110   210.5363 </r>
       <r>     6.8751     2.3290   210.7955 </r>
       <r>     6.9864     1.1454   210.9230 </r>
       <r>     7.0977     1.5048   211.0905 </r>
       <r>     7.2090     0.9191   211.1928 </r>
       <r>     7.3203     2.8783   211.5131 </r>
       <r>     7.4316     7.3383   212.3298 </r>
       <r>     7.5429     4.2645   212.8045 </r>
       <r>     7.6542     3.8708   213.2353 </r>
       <r>     7.7655     4.6096   213.7483 </r>
       <r>     7.8768     1.5300   213.9186 </r>
       <r>     7.9881     3.8129   214.3429 </r>
       <r>     8.0994     5.5413   214.9597 </r>
       <r>     8.2107     4.8341   215.4977 </r>
       <r>     8.3220     5.7770   216.1406 </r>
       <r>     8.4333     5.9132   216.7988 </r>
       <r>     8.5446     3.2569   217.1612 </r>
       <r>     8.6559     4.3548   217.6459 </r>
       <r>     8.7672     4.1587   218.1088 </r>
       <r>     8.8785     4.5610   218.6164 </r>
       <r>     8.9898     7.2030   219.4181 </r>
       <r>     9.1011     7.3079   220.2314 </r>
       <r>     9.2124     9.3938   221.2769 </r>
       <r>     9.3237     9.2783   222.3095 </r>
       <r>     9.4349     6.3405   223.0152 </r>
       <r>     9.5462     8.2928   223.9382 </r>
       <r>     9.6575    12.5147   225.3310 </r>
       <r>     9.7688     5.0580   225.8939 </r>
       <r>     9.8801     4.7562   226.4233 </r>
       <r>     9.9914     6.5855   227.1562 </r>
       <r>    10.1027     4.1903   227.6226 </r>
       <r>    10.2140     2.1276   227.8594 </r>
       <r>    10.3253     1.2409   227.9975 </r>
       <r>    10.4366     0.0224   228.0000 </r>
       <r>    10.5479     0.0000   228.0000 </r>
       <r>    10.6592     0.0000   228.0000 </r>
       <r>    10.7705     0.0000   228.0000 </r>
       <r>    10.8818     0.0000   228.0000 </r>
       <r>    10.9931     0.0000   228.0000 </r>
       <r>    11.1044     0.0000   228.0000 </r>
       <r>    11.2157     0.0000   228.0000 </r>
       <r>    11.3270     0.0000   228.0000 </r>
       <r>    11.4383     0.0000   228.0000 </r>
       <r>    11.5496     0.0000   228.0000 </r>
       <r>    11.6609     0.0000   228.0000 </r>
       <r>    11.7722     0.0000   228.0000 </r>
      </set>
     </set>
    </array>
   </total>
  </dos>
 </calculation>
 <structure name="finalpos" >
  <crystal>
   <varray name="basis" >
    <v>       6.36215693       0.00000000       0.00000000 </v>
    <v>       0.00000000       6.38448299       0.00000000 </v>
    <v>       0.00000000       0.00000000      22.02159841 </v>
   </varray>
   <i name="volume">    894.49712699 </i>
   <varray name="rec_basis" >
    <v>       0.15717940       0.00000000       0.00000000 </v>
    <v>       0.00000000       0.15662975       0.00000000 </v>
    <v>       0.00000000       0.00000000       0.04540996 </v>
   </varray>
  </crystal>
  <varray name="positions" >
   <v>       0.08911000       0.35546000       0.00000000 </v>
   <v>       0.58911000       0.35546000       0.00000000 </v>
   <v>       0.33911000       0.04693000       0.05551000 </v>
   <v>       0.83911000       0.04693000       0.05551000 </v>
   <v>       0.33911000       0.66399000       0.05551000 </v>
   <v>       0.83911000       0.66399000       0.05551000 </v>
   <v>       0.08911000       0.35546000       0.11102000 </v>
   <v>       0.58911000       0.35546000       0.11102000 </v>
   <v>       0.58911000       0.85546000       0.14496000 </v>
   <v>       0.08911000       0.85546000       0.14496000 </v>
   <v>       0.33911000       0.16399000       0.20047000 </v>
   <v>       0.83911000       0.16399000       0.20047000 </v>
   <v>       0.33911000       0.54693000       0.20047000 </v>
   <v>       0.83911000       0.54693000       0.20047000 </v>
   <v>       0.08911000       0.85546000       0.25598000 </v>
   <v>       0.58911000       0.85546000       0.25598000 </v>
   <v>       0.08790463       0.35534639       0.28932133 </v>
   <v>       0.58719446       0.35540257       0.28908018 </v>
   <v>       0.33826642       0.04717054       0.34609906 </v>
   <v>       0.83759097       0.04691014       0.34578281 </v>
   <v>       0.33820378       0.66381951       0.34603519 </v>
   <v>       0.83763055       0.66409853       0.34572663 </v>
   <v>       0.08606837       0.35580698       0.39954376 </v>
   <v>       0.58679025       0.35645462       0.39797753 </v>
   <v>       0.08352561       0.85537580       0.43680427 </v>
   <v>       0.59444005       0.85554130       0.43686485 </v>
   <v>       0.33582732       0.16822744       0.50570337 </v>
   <v>       0.85063361       0.15561734       0.49223647 </v>
   <v>       0.33590720       0.54250086       0.50569327 </v>
   <v>       0.85061496       0.55510824       0.49225061 </v>
   <v>       0.07795944       0.85541206       0.54889919 </v>
   <v>       0.60295109       0.85539900       0.54829226 </v>
   <v>       0.59297750       0.35522583       0.49471599 </v>
   <v>       0.83989986       0.85533932       0.49569426 </v>
   <v>       0.33911000       0.35546000       0.05551000 </v>
   <v>       0.83911000       0.35546000       0.05551000 </v>
   <v>       0.08911000       0.85546000       0.05551000 </v>
   <v>       0.58911000       0.85546000       0.05551000 </v>
   <v>       0.08911000       0.35546000       0.20047000 </v>
   <v>       0.58911000       0.35546000       0.20047000 </v>
   <v>       0.33911000       0.85546000       0.20047000 </v>
   <v>       0.83911000       0.85546000       0.20047000 </v>
   <v>       0.83506931       0.35548005       0.34447911 </v>
   <v>       0.33889361       0.35546906       0.34451399 </v>
   <v>       0.08838926       0.85548184       0.34657396 </v>
   <v>       0.58794310       0.85547012       0.34659322 </v>
   <v>       0.09923189       0.35536249       0.48750838 </v>
   <v>       0.33926260       0.85536725       0.49425247 </v>
  </varray>
  <varray name="selective"  type="logical" >
   <v type="logical" >  F  F  F </v>
   <v type="logical" >  F  F  F </v>
   <v type="logical" >  F  F  F </v>
   <v type="logical" >  F  F  F </v>
   <v type="logical" >  F  F  F </v>
   <v type="logical" >  F  F  F </v>
   <v type="logical" >  F  F  F </v>
   <v type="logical" >  F  F  F </v>
   <v type="logical" >  F  F  F </v>
   <v type="logical" >  F  F  F </v>
   <v type="logical" >  F  F  F </v>
   <v type="logical" >  F  F  F </v>
   <v type="logical" >  F  F  F </v>
   <v type="logical" >  F  F  F </v>
   <v type="logical" >  F  F  F </v>
   <v type="logical" >  F  F  F </v>
   <v type="logical" >  T  T  T </v>
   <v type="logical" >  T  T  T </v>
   <v type="logical" >  T  T  T </v>
   <v type="logical" >  T  T  T </v>
   <v type="logical" >  T  T  T </v>
   <v type="logical" >  T  T  T </v>
   <v type="logical" >  T  T  T </v>
   <v type="logical" >  T  T  T </v>
   <v type="logical" >  T  T  T </v>
   <v type="logical" >  T  T  T </v>
   <v type="logical" >  T  T  T </v>
   <v type="logical" >  T  T  T </v>
   <v type="logical" >  T  T  T </v>
   <v type="logical" >  T  T  T </v>
   <v type="logical" >  T  T  T </v>
   <v type="logical" >  T  T  T </v>
   <v type="logical" >  T  T  T </v>
   <v type="logical" >  T  T  T </v>
   <v type="logical" >  F  F  F </v>
   <v type="logical" >  F  F  F </v>
   <v type="logical" >  F  F  F </v>
   <v type="logical" >  F  F  F </v>
   <v type="logical" >  F  F  F </v>
   <v type="logical" >  F  F  F </v>
   <v type="logical" >  F  F  F </v>
   <v type="logical" >  F  F  F </v>
   <v type="logical" >  T  T  T </v>
   <v type="logical" >  T  T  T </v>
   <v type="logical" >  T  T  T </v>
   <v type="logical" >  T  T  T </v>
   <v type="logical" >  T  T  T </v>
   <v type="logical" >  T  T  T </v>
  </varray>
  <nose>
   <v>      -3.00000000       0.00000000       0.00010000       0.00010000 </v>
  </nose>
 </structure>
</modeling>
