                                        
           1
     6.362157    0.000000    0.000000
     0.000000    6.384483    0.000000
     0.000000    0.000000   22.021598
   O    Pd   Os   Ir   Pt
  32   1   1  13   1
Direct configuration=     1
   0.08911000  0.35546000  0.00000000
   0.58911000  0.35546000  0.00000000
   0.33911000  0.04693000  0.05551000
   0.83911000  0.04693000  0.05551000
   0.33911000  0.66399000  0.05551000
   0.83911000  0.66399000  0.05551000
   0.08911000  0.35546000  0.11102000
   0.58911000  0.35546000  0.11102000
   0.58911000  0.85546000  0.14496000
   0.08911000  0.85546000  0.14496000
   0.33911000  0.16399000  0.20047000
   0.83911000  0.16399000  0.20047000
   0.33911000  0.54693000  0.20047000
   0.83911000  0.54693000  0.20047000
   0.08911000  0.85546000  0.25598000
   0.58911000  0.85546000  0.25598000
   0.08914000  0.35542000  0.28947000
   0.58914000  0.35542000  0.28947000
   0.33913000  0.04670000  0.34597000
   0.83913000  0.04670000  0.34597000
   0.33911000  0.66418000  0.34595000
   0.83911000  0.66418000  0.34595000
   0.08916000  0.35571000  0.39990000
   0.58916000  0.35571000  0.39990000
   0.08915000  0.85549000  0.43609000
   0.58915000  0.85549000  0.43609000
   0.33914000  0.16538000  0.49406000
   0.83914000  0.16538000  0.49406000
   0.33915000  0.54556000  0.49405000
   0.83915000  0.54556000  0.49405000
   0.08915000  0.85548000  0.54665000
   0.58915000  0.85548000  0.54665000
   0.58913000  0.35545000  0.48811000
   0.83915000  0.85545000  0.49288000
   0.33911000  0.35546000  0.05551000
   0.83911000  0.35546000  0.05551000
   0.08911000  0.85546000  0.05551000
   0.58911000  0.85546000  0.05551000
   0.08911000  0.35546000  0.20047000
   0.58911000  0.35546000  0.20047000
   0.33911000  0.85546000  0.20047000
   0.83911000  0.85546000  0.20047000
   0.83914000  0.35543000  0.34488000
   0.33914000  0.35543000  0.34488000
   0.08911000  0.85543000  0.34634000
   0.58911000  0.85543000  0.34634000
   0.08913000  0.35545000  0.48811000
   0.33915000  0.85545000  0.49288000
Direct configuration=     2
   0.08911000  0.35546000  0.00000000
   0.58911000  0.35546000  0.00000000
   0.33911000  0.04693000  0.05551000
   0.83911000  0.04693000  0.05551000
   0.33911000  0.66399000  0.05551000
   0.83911000  0.66399000  0.05551000
   0.08911000  0.35546000  0.11102000
   0.58911000  0.35546000  0.11102000
   0.58911000  0.85546000  0.14496000
   0.08911000  0.85546000  0.14496000
   0.33911000  0.16399000  0.20047000
   0.83911000  0.16399000  0.20047000
   0.33911000  0.54693000  0.20047000
   0.83911000  0.54693000  0.20047000
   0.08911000  0.85546000  0.25598000
   0.58911000  0.85546000  0.25598000
   0.08915616  0.35541768  0.28940073
   0.58906817  0.35541777  0.28949432
   0.33915751  0.04681980  0.34595935
   0.83912905  0.04675064  0.34598668
   0.33913972  0.66406187  0.34593866
   0.83911098  0.66413182  0.34596604
   0.08879488  0.35571166  0.39996716
   0.58929072  0.35571808  0.39891643
   0.08766994  0.85549020  0.43609173
   0.59042420  0.85549040  0.43604874
   0.33847586  0.16602926  0.49437573
   0.84008149  0.16348226  0.49412528
   0.33848826  0.54490428  0.49436546
   0.84009242  0.54745613  0.49411582
   0.08758489  0.85548056  0.54663140
   0.59099915  0.85548015  0.54656878
   0.58865139  0.35544366  0.48880071
   0.83852893  0.85545046  0.49335911
   0.33911000  0.35546000  0.05551000
   0.83911000  0.35546000  0.05551000
   0.08911000  0.85546000  0.05551000
   0.58911000  0.85546000  0.05551000
   0.08911000  0.35546000  0.20047000
   0.58911000  0.35546000  0.20047000
   0.33911000  0.85546000  0.20047000
   0.83911000  0.85546000  0.20047000
   0.83832826  0.35542990  0.34492117
   0.34002267  0.35542928  0.34490356
   0.08947956  0.85543207  0.34630450
   0.58870849  0.85543176  0.34627898
   0.08973050  0.35545012  0.48775441
   0.33922175  0.85545538  0.49247382
Direct configuration=     3
   0.08911000  0.35546000  0.00000000
   0.58911000  0.35546000  0.00000000
   0.33911000  0.04693000  0.05551000
   0.83911000  0.04693000  0.05551000
   0.33911000  0.66399000  0.05551000
   0.83911000  0.66399000  0.05551000
   0.08911000  0.35546000  0.11102000
   0.58911000  0.35546000  0.11102000
   0.58911000  0.85546000  0.14496000
   0.08911000  0.85546000  0.14496000
   0.33911000  0.16399000  0.20047000
   0.83911000  0.16399000  0.20047000
   0.33911000  0.54693000  0.20047000
   0.83911000  0.54693000  0.20047000
   0.08911000  0.85546000  0.25598000
   0.58911000  0.85546000  0.25598000
   0.08917753  0.35541462  0.28930913
   0.58897320  0.35541482  0.28952648
   0.33919388  0.04697821  0.34594527
   0.83912779  0.04681760  0.34600874
   0.33917901  0.66390567  0.34592366
   0.83911227  0.66406810  0.34598725
   0.08831209  0.35571386  0.40005597
   0.58946358  0.35572877  0.39761585
   0.08571285  0.85549047  0.43609401
   0.59210908  0.85549092  0.43599419
   0.33759765  0.16688779  0.49479323
   0.84132643  0.16097287  0.49421159
   0.33761323  0.54403721  0.49478259
   0.84133859  0.54996341  0.49420286
   0.08551534  0.85548129  0.54660681
   0.59344430  0.85548035  0.54646139
   0.58801853  0.35543529  0.48971403
   0.83770768  0.85545106  0.49399264
   0.33911000  0.35546000  0.05551000
   0.83911000  0.35546000  0.05551000
   0.08911000  0.85546000  0.05551000
   0.58911000  0.85546000  0.05551000
   0.08911000  0.35546000  0.20047000
   0.58911000  0.35546000  0.20047000
   0.33911000  0.85546000  0.20047000
   0.83911000  0.85546000  0.20047000
   0.83725489  0.35542976  0.34497561
   0.34118984  0.35542832  0.34493471
   0.08996823  0.85543481  0.34625757
   0.58817758  0.85543409  0.34619830
   0.09052455  0.35545028  0.48728420
   0.33931663  0.85546249  0.49193673
Direct configuration=     4
   0.08911000  0.35546000  0.00000000
   0.58911000  0.35546000  0.00000000
   0.33911000  0.04693000  0.05551000
   0.83911000  0.04693000  0.05551000
   0.33911000  0.66399000  0.05551000
   0.83911000  0.66399000  0.05551000
   0.08911000  0.35546000  0.11102000
   0.58911000  0.35546000  0.11102000
   0.58911000  0.85546000  0.14496000
   0.08911000  0.85546000  0.14496000
   0.33911000  0.16399000  0.20047000
   0.83911000  0.16399000  0.20047000
   0.33911000  0.54693000  0.20047000
   0.83911000  0.54693000  0.20047000
   0.08911000  0.85546000  0.25598000
   0.58911000  0.85546000  0.25598000
   0.08922027  0.35540849  0.28912594
   0.58878324  0.35540893  0.28959080
   0.33926663  0.04729503  0.34591711
   0.83912528  0.04695153  0.34605285
   0.33925760  0.66359327  0.34589366
   0.83911486  0.66394068  0.34602967
   0.08734650  0.35571825  0.40023358
   0.58980929  0.35575014  0.39501468
   0.08179867  0.85549101  0.43609858
   0.59547885  0.85549196  0.43588508
   0.33584124  0.16860483  0.49562822
   0.84381630  0.15595408  0.49438422
   0.33586317  0.54230307  0.49561685
   0.84383092  0.55497796  0.49437694
   0.08137624  0.85548277  0.54655763
   0.59833459  0.85548074  0.54624660
   0.58675280  0.35541853  0.49154068
   0.83606519  0.85545226  0.49525970
   0.33911000  0.35546000  0.05551000
   0.83911000  0.35546000  0.05551000
   0.08911000  0.85546000  0.05551000
   0.58911000  0.85546000  0.05551000
   0.08911000  0.35546000  0.20047000
   0.58911000  0.35546000  0.20047000
   0.33911000  0.85546000  0.20047000
   0.83911000  0.85546000  0.20047000
   0.83510814  0.35542948  0.34508448
   0.34352418  0.35542641  0.34499701
   0.09094556  0.85544028  0.34616370
   0.58711575  0.85543875  0.34603693
   0.09211264  0.35545060  0.48634380
   0.33950638  0.85547671  0.49086255
Direct configuration=     5
   0.08911000  0.35546000  0.00000000
   0.58911000  0.35546000  0.00000000
   0.33911000  0.04693000  0.05551000
   0.83911000  0.04693000  0.05551000
   0.33911000  0.66399000  0.05551000
   0.83911000  0.66399000  0.05551000
   0.08911000  0.35546000  0.11102000
   0.58911000  0.35546000  0.11102000
   0.58911000  0.85546000  0.14496000
   0.08911000  0.85546000  0.14496000
   0.33911000  0.16399000  0.20047000
   0.83911000  0.16399000  0.20047000
   0.33911000  0.54693000  0.20047000
   0.83911000  0.54693000  0.20047000
   0.08911000  0.85546000  0.25598000
   0.58911000  0.85546000  0.25598000
   0.08920049  0.35541132  0.28921071
   0.58887114  0.35541165  0.28956104
   0.33923297  0.04714842  0.34593014
   0.83912644  0.04688955  0.34603243
   0.33922123  0.66373783  0.34590754
   0.83911366  0.66399964  0.34601004
   0.08779332  0.35571622  0.40015139
   0.58964932  0.35574025  0.39621836
   0.08360994  0.85549076  0.43609646
   0.59391951  0.85549148  0.43593557
   0.33665401  0.16781028  0.49524183
   0.84266412  0.15827650  0.49430434
   0.33667300  0.54310554  0.49523080
   0.84267761  0.55265750  0.49429639
   0.08329159  0.85548208  0.54658039
   0.59607163  0.85548056  0.54634599
   0.58733851  0.35542629  0.49069541
   0.83682525  0.85545170  0.49467338
   0.33911000  0.35546000  0.05551000
   0.83911000  0.35546000  0.05551000
   0.08911000  0.85546000  0.05551000
   0.58911000  0.85546000  0.05551000
   0.08911000  0.35546000  0.20047000
   0.58911000  0.35546000  0.20047000
   0.33911000  0.85546000  0.20047000
   0.83911000  0.85546000  0.20047000
   0.83610154  0.35542961  0.34503410
   0.34244397  0.35542729  0.34496818
   0.09049331  0.85543775  0.34620713
   0.58760711  0.85543659  0.34611160
   0.09137776  0.35545045  0.48677897
   0.33941857  0.85547013  0.49135962
Direct configuration=     6
   0.08911000  0.35546000  0.00000000
   0.58911000  0.35546000  0.00000000
   0.33911000  0.04693000  0.05551000
   0.83911000  0.04693000  0.05551000
   0.33911000  0.66399000  0.05551000
   0.83911000  0.66399000  0.05551000
   0.08911000  0.35546000  0.11102000
   0.58911000  0.35546000  0.11102000
   0.58911000  0.85546000  0.14496000
   0.08911000  0.85546000  0.14496000
   0.33911000  0.16399000  0.20047000
   0.83911000  0.16399000  0.20047000
   0.33911000  0.54693000  0.20047000
   0.83911000  0.54693000  0.20047000
   0.08911000  0.85546000  0.25598000
   0.58911000  0.85546000  0.25598000
   0.08924807  0.35541005  0.28942265
   0.58887807  0.35540850  0.28935435
   0.33941936  0.04727083  0.34591005
   0.83897362  0.04672530  0.34601206
   0.33940710  0.66361851  0.34588639
   0.83896188  0.66416990  0.34598838
   0.08725837  0.35571740  0.39985012
   0.58976045  0.35575852  0.39620196
   0.08203258  0.85549011  0.43603004
   0.59497527  0.85549358  0.43578211
   0.33592569  0.16774777  0.49582492
   0.84368388  0.15738222  0.49429809
   0.33594805  0.54316818  0.49581326
   0.84369370  0.55354448  0.49429081
   0.08198273  0.85548301  0.54655355
   0.59728361  0.85547858  0.54635917
   0.58825667  0.35542562  0.49125494
   0.83754354  0.85544578  0.49504744
   0.33911000  0.35546000  0.05551000
   0.83911000  0.35546000  0.05551000
   0.08911000  0.85546000  0.05551000
   0.58911000  0.85546000  0.05551000
   0.08911000  0.35546000  0.20047000
   0.58911000  0.35546000  0.20047000
   0.33911000  0.85546000  0.20047000
   0.83911000  0.85546000  0.20047000
   0.83765174  0.35542994  0.34455172
   0.34069932  0.35542996  0.34450939
   0.08956163  0.85543847  0.34622224
   0.58853417  0.85543836  0.34606219
   0.09108277  0.35545018  0.48667887
   0.33868583  0.85546274  0.49117395
Direct configuration=     7
   0.08911000  0.35546000  0.00000000
   0.58911000  0.35546000  0.00000000
   0.33911000  0.04693000  0.05551000
   0.83911000  0.04693000  0.05551000
   0.33911000  0.66399000  0.05551000
   0.83911000  0.66399000  0.05551000
   0.08911000  0.35546000  0.11102000
   0.58911000  0.35546000  0.11102000
   0.58911000  0.85546000  0.14496000
   0.08911000  0.85546000  0.14496000
   0.33911000  0.16399000  0.20047000
   0.83911000  0.16399000  0.20047000
   0.33911000  0.54693000  0.20047000
   0.83911000  0.54693000  0.20047000
   0.08911000  0.85546000  0.25598000
   0.58911000  0.85546000  0.25598000
   0.08928483  0.35540907  0.28958641
   0.58888342  0.35540607  0.28919464
   0.33956338  0.04736541  0.34589453
   0.83885553  0.04659839  0.34599633
   0.33955071  0.66352632  0.34587004
   0.83884460  0.66430145  0.34597164
   0.08684502  0.35571832  0.39961733
   0.58984631  0.35577264  0.39618929
   0.08081379  0.85548961  0.43597872
   0.59579104  0.85549520  0.43566354
   0.33536294  0.16769947  0.49627546
   0.84447182  0.15669123  0.49429326
   0.33538790  0.54321659  0.49626331
   0.84447882  0.55422984  0.49428651
   0.08097140  0.85548372  0.54653281
   0.59822008  0.85547705  0.54636936
   0.58896611  0.35542511  0.49168728
   0.83809854  0.85544121  0.49533647
   0.33911000  0.35546000  0.05551000
   0.83911000  0.35546000  0.05551000
   0.08911000  0.85546000  0.05551000
   0.58911000  0.85546000  0.05551000
   0.08911000  0.35546000  0.20047000
   0.58911000  0.35546000  0.20047000
   0.33911000  0.85546000  0.20047000
   0.83911000  0.85546000  0.20047000
   0.83884955  0.35543020  0.34417900
   0.33935127  0.35543202  0.34415490
   0.08884175  0.85543903  0.34623391
   0.58925048  0.85543973  0.34602402
   0.09085484  0.35544996  0.48660153
   0.33811966  0.85545703  0.49103049
Direct configuration=     8
   0.08911000  0.35546000  0.00000000
   0.58911000  0.35546000  0.00000000
   0.33911000  0.04693000  0.05551000
   0.83911000  0.04693000  0.05551000
   0.33911000  0.66399000  0.05551000
   0.83911000  0.66399000  0.05551000
   0.08911000  0.35546000  0.11102000
   0.58911000  0.35546000  0.11102000
   0.58911000  0.85546000  0.14496000
   0.08911000  0.85546000  0.14496000
   0.33911000  0.16399000  0.20047000
   0.83911000  0.16399000  0.20047000
   0.33911000  0.54693000  0.20047000
   0.83911000  0.54693000  0.20047000
   0.08911000  0.85546000  0.25598000
   0.58911000  0.85546000  0.25598000
   0.08929170  0.35540889  0.28961699
   0.58888442  0.35540561  0.28916481
   0.33959027  0.04738308  0.34589163
   0.83883348  0.04657469  0.34599339
   0.33957754  0.66350910  0.34586699
   0.83882269  0.66432602  0.34596851
   0.08676782  0.35571849  0.39957385
   0.58986235  0.35577528  0.39618693
   0.08058616  0.85548952  0.43596913
   0.59594340  0.85549550  0.43564140
   0.33525783  0.16769045  0.49635961
   0.84461898  0.15656217  0.49429236
   0.33528329  0.54322563  0.49634737
   0.84462545  0.55435784  0.49428570
   0.08078251  0.85548386  0.54652893
   0.59839499  0.85547676  0.54637126
   0.58909861  0.35542501  0.49176803
   0.83820220  0.85544035  0.49539045
   0.33911000  0.35546000  0.05551000
   0.83911000  0.35546000  0.05551000
   0.08911000  0.85546000  0.05551000
   0.58911000  0.85546000  0.05551000
   0.08911000  0.35546000  0.20047000
   0.58911000  0.35546000  0.20047000
   0.33911000  0.85546000  0.20047000
   0.83911000  0.85546000  0.20047000
   0.83907326  0.35543025  0.34410938
   0.33909950  0.35543241  0.34408869
   0.08870730  0.85543913  0.34623609
   0.58938427  0.85543999  0.34601689
   0.09081227  0.35544992  0.48658709
   0.33801392  0.85545596  0.49100370
Direct configuration=     9
   0.08911000  0.35546000  0.00000000
   0.58911000  0.35546000  0.00000000
   0.33911000  0.04693000  0.05551000
   0.83911000  0.04693000  0.05551000
   0.33911000  0.66399000  0.05551000
   0.83911000  0.66399000  0.05551000
   0.08911000  0.35546000  0.11102000
   0.58911000  0.35546000  0.11102000
   0.58911000  0.85546000  0.14496000
   0.08911000  0.85546000  0.14496000
   0.33911000  0.16399000  0.20047000
   0.83911000  0.16399000  0.20047000
   0.33911000  0.54693000  0.20047000
   0.83911000  0.54693000  0.20047000
   0.08911000  0.85546000  0.25598000
   0.58911000  0.85546000  0.25598000
   0.08933956  0.35540567  0.28945471
   0.58881995  0.35540212  0.28889660
   0.33947604  0.04721773  0.34584687
   0.83889975  0.04665170  0.34589902
   0.33946290  0.66367705  0.34582113
   0.83889475  0.66425244  0.34587184
   0.08638509  0.35571843  0.39920814
   0.58979318  0.35579674  0.39634549
   0.07957390  0.85549089  0.43588173
   0.59648469  0.85549614  0.43558256
   0.33466942  0.16749634  0.49710694
   0.84546831  0.15670369  0.49426184
   0.33469740  0.54341863  0.49709357
   0.84546994  0.55420478  0.49425653
   0.08054703  0.85548143  0.54669897
   0.59853282  0.85547656  0.54648389
   0.58984960  0.35542763  0.49204196
   0.83834548  0.85544333  0.49535328
   0.33911000  0.35546000  0.05551000
   0.83911000  0.35546000  0.05551000
   0.08911000  0.85546000  0.05551000
   0.58911000  0.85546000  0.05551000
   0.08911000  0.35546000  0.20047000
   0.58911000  0.35546000  0.20047000
   0.33911000  0.85546000  0.20047000
   0.83911000  0.85546000  0.20047000
   0.83804703  0.35543466  0.34386676
   0.33983861  0.35543588  0.34392645
   0.08873291  0.85544056  0.34622835
   0.58937014  0.85544172  0.34600356
   0.09103443  0.35544491  0.48651674
   0.33786237  0.85545293  0.49100619
Direct configuration=    10
   0.08911000  0.35546000  0.00000000
   0.58911000  0.35546000  0.00000000
   0.33911000  0.04693000  0.05551000
   0.83911000  0.04693000  0.05551000
   0.33911000  0.66399000  0.05551000
   0.83911000  0.66399000  0.05551000
   0.08911000  0.35546000  0.11102000
   0.58911000  0.35546000  0.11102000
   0.58911000  0.85546000  0.14496000
   0.08911000  0.85546000  0.14496000
   0.33911000  0.16399000  0.20047000
   0.83911000  0.16399000  0.20047000
   0.33911000  0.54693000  0.20047000
   0.83911000  0.54693000  0.20047000
   0.08911000  0.85546000  0.25598000
   0.58911000  0.85546000  0.25598000
   0.08945162  0.35539814  0.28907477
   0.58866901  0.35539394  0.28826869
   0.33920860  0.04683063  0.34574206
   0.83905488  0.04683199  0.34567809
   0.33919452  0.66407024  0.34571379
   0.83906344  0.66408018  0.34564553
   0.08548908  0.35571831  0.39835196
   0.58963123  0.35584700  0.39671670
   0.07720409  0.85549411  0.43567712
   0.59775189  0.85549763  0.43544482
   0.33329188  0.16704191  0.49885651
   0.84745665  0.15703499  0.49419038
   0.33332578  0.54387048  0.49884052
   0.84744696  0.55384646  0.49418822
   0.07999573  0.85547575  0.54709704
   0.59885549  0.85547608  0.54674757
   0.59160776  0.35543375  0.49268325
   0.83868092  0.85545031  0.49526624
   0.33911000  0.35546000  0.05551000
   0.83911000  0.35546000  0.05551000
   0.08911000  0.85546000  0.05551000
   0.58911000  0.85546000  0.05551000
   0.08911000  0.35546000  0.20047000
   0.58911000  0.35546000  0.20047000
   0.33911000  0.85546000  0.20047000
   0.83911000  0.85546000  0.20047000
   0.83564453  0.35544498  0.34329876
   0.34156895  0.35544399  0.34354662
   0.08879287  0.85544389  0.34621025
   0.58933708  0.85544577  0.34597237
   0.09155454  0.35543317  0.48635206
   0.33750758  0.85544584  0.49101201
Direct configuration=    11
   0.08911000  0.35546000  0.00000000
   0.58911000  0.35546000  0.00000000
   0.33911000  0.04693000  0.05551000
   0.83911000  0.04693000  0.05551000
   0.33911000  0.66399000  0.05551000
   0.83911000  0.66399000  0.05551000
   0.08911000  0.35546000  0.11102000
   0.58911000  0.35546000  0.11102000
   0.58911000  0.85546000  0.14496000
   0.08911000  0.85546000  0.14496000
   0.33911000  0.16399000  0.20047000
   0.83911000  0.16399000  0.20047000
   0.33911000  0.54693000  0.20047000
   0.83911000  0.54693000  0.20047000
   0.08911000  0.85546000  0.25598000
   0.58911000  0.85546000  0.25598000
   0.08940743  0.35539734  0.28874175
   0.58835695  0.35539625  0.28818306
   0.33931374  0.04684975  0.34566492
   0.83875512  0.04696038  0.34542823
   0.33928060  0.66407178  0.34563439
   0.83875681  0.66396696  0.34539347
   0.08532460  0.35571398  0.39812747
   0.58922434  0.35588478  0.39683013
   0.07733505  0.85549308  0.43563228
   0.59753119  0.85549422  0.43550050
   0.33311138  0.16731637  0.50008038
   0.84821574  0.15712171  0.49409920
   0.33313872  0.54357260  0.50006364
   0.84820851  0.55374817  0.49409976
   0.08027051  0.85547347  0.54730857
   0.59866200  0.85547745  0.54678903
   0.59114073  0.35542694  0.49300755
   0.83809495  0.85544162  0.49526624
   0.33911000  0.35546000  0.05551000
   0.83911000  0.35546000  0.05551000
   0.08911000  0.85546000  0.05551000
   0.58911000  0.85546000  0.05551000
   0.08911000  0.35546000  0.20047000
   0.58911000  0.35546000  0.20047000
   0.33911000  0.85546000  0.20047000
   0.83911000  0.85546000  0.20047000
   0.83612232  0.35544974  0.34326535
   0.34074103  0.35544645  0.34359236
   0.08876195  0.85544948  0.34606635
   0.58911893  0.85544886  0.34593658
   0.09347390  0.35542959  0.48597898
   0.33750819  0.85544576  0.49137752
Direct configuration=    12
   0.08911000  0.35546000  0.00000000
   0.58911000  0.35546000  0.00000000
   0.33911000  0.04693000  0.05551000
   0.83911000  0.04693000  0.05551000
   0.33911000  0.66399000  0.05551000
   0.83911000  0.66399000  0.05551000
   0.08911000  0.35546000  0.11102000
   0.58911000  0.35546000  0.11102000
   0.58911000  0.85546000  0.14496000
   0.08911000  0.85546000  0.14496000
   0.33911000  0.16399000  0.20047000
   0.83911000  0.16399000  0.20047000
   0.33911000  0.54693000  0.20047000
   0.83911000  0.54693000  0.20047000
   0.08911000  0.85546000  0.25598000
   0.58911000  0.85546000  0.25598000
   0.08937928  0.35539683  0.28852963
   0.58815818  0.35539772  0.28812852
   0.33938071  0.04686193  0.34561578
   0.83856419  0.04704217  0.34526909
   0.33933543  0.66407275  0.34558382
   0.83856150  0.66389484  0.34523292
   0.08521984  0.35571122  0.39798447
   0.58896517  0.35590884  0.39690237
   0.07741846  0.85549243  0.43560372
   0.59739062  0.85549205  0.43553597
   0.33299641  0.16749119  0.50085992
   0.84869925  0.15717694  0.49404112
   0.33301958  0.54338287  0.50084270
   0.84869358  0.55368556  0.49404342
   0.08044553  0.85547202  0.54744331
   0.59853875  0.85547832  0.54681544
   0.59084325  0.35542260  0.49321411
   0.83772172  0.85543609  0.49526624
   0.33911000  0.35546000  0.05551000
   0.83911000  0.35546000  0.05551000
   0.08911000  0.85546000  0.05551000
   0.58911000  0.85546000  0.05551000
   0.08911000  0.35546000  0.20047000
   0.58911000  0.35546000  0.20047000
   0.33911000  0.85546000  0.20047000
   0.83911000  0.85546000  0.20047000
   0.83642665  0.35545277  0.34324408
   0.34021368  0.35544802  0.34362150
   0.08874226  0.85545305  0.34597468
   0.58897999  0.85545082  0.34591378
   0.09469643  0.35542730  0.48574134
   0.33750858  0.85544571  0.49161033
Direct configuration=    13
   0.08911000  0.35546000  0.00000000
   0.58911000  0.35546000  0.00000000
   0.33911000  0.04693000  0.05551000
   0.83911000  0.04693000  0.05551000
   0.33911000  0.66399000  0.05551000
   0.83911000  0.66399000  0.05551000
   0.08911000  0.35546000  0.11102000
   0.58911000  0.35546000  0.11102000
   0.58911000  0.85546000  0.14496000
   0.08911000  0.85546000  0.14496000
   0.33911000  0.16399000  0.20047000
   0.83911000  0.16399000  0.20047000
   0.33911000  0.54693000  0.20047000
   0.83911000  0.54693000  0.20047000
   0.08911000  0.85546000  0.25598000
   0.58911000  0.85546000  0.25598000
   0.08932297  0.35539582  0.28810539
   0.58776064  0.35540067  0.28801943
   0.33951465  0.04688629  0.34551751
   0.83818233  0.04720573  0.34495079
   0.33944508  0.66407471  0.34548267
   0.83817088  0.66375061  0.34491183
   0.08501031  0.35570570  0.39769849
   0.58844682  0.35595695  0.39704686
   0.07758529  0.85549113  0.43554660
   0.59710947  0.85548770  0.43560690
   0.33276648  0.16784082  0.50241901
   0.84966626  0.15728741  0.49392497
   0.33278129  0.54300341  0.50240083
   0.84966371  0.55356035  0.49393074
   0.08079558  0.85546911  0.54771278
   0.59829226  0.85548005  0.54686826
   0.59024830  0.35541392  0.49362724
   0.83697525  0.85542503  0.49526624
   0.33911000  0.35546000  0.05551000
   0.83911000  0.35546000  0.05551000
   0.08911000  0.85546000  0.05551000
   0.58911000  0.85546000  0.05551000
   0.08911000  0.35546000  0.20047000
   0.58911000  0.35546000  0.20047000
   0.33911000  0.85546000  0.20047000
   0.83911000  0.85546000  0.20047000
   0.83703530  0.35545883  0.34320152
   0.33915899  0.35545115  0.34367977
   0.08870288  0.85546017  0.34579136
   0.58870209  0.85545475  0.34586818
   0.09714151  0.35542274  0.48526606
   0.33750936  0.85544561  0.49207596
Direct configuration=    14
   0.08911000  0.35546000  0.00000000
   0.58911000  0.35546000  0.00000000
   0.33911000  0.04693000  0.05551000
   0.83911000  0.04693000  0.05551000
   0.33911000  0.66399000  0.05551000
   0.83911000  0.66399000  0.05551000
   0.08911000  0.35546000  0.11102000
   0.58911000  0.35546000  0.11102000
   0.58911000  0.85546000  0.14496000
   0.08911000  0.85546000  0.14496000
   0.33911000  0.16399000  0.20047000
   0.83911000  0.16399000  0.20047000
   0.33911000  0.54693000  0.20047000
   0.83911000  0.54693000  0.20047000
   0.08911000  0.85546000  0.25598000
   0.58911000  0.85546000  0.25598000
   0.08935630  0.35539642  0.28835654
   0.58799598  0.35539893  0.28808401
   0.33943536  0.04687187  0.34557568
   0.83840839  0.04710890  0.34513922
   0.33938017  0.66407355  0.34554255
   0.83840212  0.66383599  0.34510191
   0.08513435  0.35570897  0.39786779
   0.58875367  0.35592847  0.39696132
   0.07748653  0.85549190  0.43558042
   0.59727590  0.85549027  0.43556491
   0.33290260  0.16763384  0.50149605
   0.84909380  0.15722201  0.49399373
   0.33292235  0.54322804  0.50147844
   0.84908941  0.55363447  0.49399745
   0.08058836  0.85547083  0.54755325
   0.59843818  0.85547902  0.54683699
   0.59060051  0.35541906  0.49338267
   0.83741715  0.85543158  0.49526624
   0.33911000  0.35546000  0.05551000
   0.83911000  0.35546000  0.05551000
   0.08911000  0.85546000  0.05551000
   0.58911000  0.85546000  0.05551000
   0.08911000  0.35546000  0.20047000
   0.58911000  0.35546000  0.20047000
   0.33911000  0.85546000  0.20047000
   0.83911000  0.85546000  0.20047000
   0.83667499  0.35545524  0.34322671
   0.33978335  0.35544929  0.34364527
   0.08872619  0.85545595  0.34589989
   0.58886660  0.85545242  0.34589517
   0.09569406  0.35542544  0.48554742
   0.33750890  0.85544567  0.49180032
Direct configuration=    15
   0.08911000  0.35546000  0.00000000
   0.58911000  0.35546000  0.00000000
   0.33911000  0.04693000  0.05551000
   0.83911000  0.04693000  0.05551000
   0.33911000  0.66399000  0.05551000
   0.83911000  0.66399000  0.05551000
   0.08911000  0.35546000  0.11102000
   0.58911000  0.35546000  0.11102000
   0.58911000  0.85546000  0.14496000
   0.08911000  0.85546000  0.14496000
   0.33911000  0.16399000  0.20047000
   0.83911000  0.16399000  0.20047000
   0.33911000  0.54693000  0.20047000
   0.83911000  0.54693000  0.20047000
   0.08911000  0.85546000  0.25598000
   0.58911000  0.85546000  0.25598000
   0.08919729  0.35539960  0.28844461
   0.58772452  0.35540709  0.28862179
   0.33919325  0.04710288  0.34552334
   0.83818434  0.04693643  0.34485650
   0.33912514  0.66385450  0.34548476
   0.83817910  0.66401287  0.34482032
   0.08555927  0.35570318  0.39797878
   0.58833287  0.35597414  0.39695501
   0.07887457  0.85548782  0.43576897
   0.59588652  0.85548486  0.43576658
   0.33367168  0.16800471  0.50264069
   0.84924241  0.15701221  0.49372910
   0.33368385  0.54284631  0.50262377
   0.84924342  0.55384565  0.49373581
   0.08021839  0.85547030  0.54760747
   0.59825662  0.85547841  0.54693340
   0.59059141  0.35540253  0.49359666
   0.83862635  0.85541224  0.49541669
   0.33911000  0.35546000  0.05551000
   0.83911000  0.35546000  0.05551000
   0.08911000  0.85546000  0.05551000
   0.58911000  0.85546000  0.05551000
   0.08911000  0.35546000  0.20047000
   0.58911000  0.35546000  0.20047000
   0.33911000  0.85546000  0.20047000
   0.83911000  0.85546000  0.20047000
   0.83576498  0.35546168  0.34322148
   0.33983097  0.35546006  0.34356047
   0.08841976  0.85547384  0.34585749
   0.58901485  0.85546244  0.34588934
   0.09636817  0.35541208  0.48556493
   0.33699839  0.85542935  0.49226721
Direct configuration=    16
   0.08911000  0.35546000  0.00000000
   0.58911000  0.35546000  0.00000000
   0.33911000  0.04693000  0.05551000
   0.83911000  0.04693000  0.05551000
   0.33911000  0.66399000  0.05551000
   0.83911000  0.66399000  0.05551000
   0.08911000  0.35546000  0.11102000
   0.58911000  0.35546000  0.11102000
   0.58911000  0.85546000  0.14496000
   0.08911000  0.85546000  0.14496000
   0.33911000  0.16399000  0.20047000
   0.83911000  0.16399000  0.20047000
   0.33911000  0.54693000  0.20047000
   0.83911000  0.54693000  0.20047000
   0.08911000  0.85546000  0.25598000
   0.58911000  0.85546000  0.25598000
   0.08913586  0.35540083  0.28847864
   0.58761966  0.35541024  0.28882952
   0.33909973  0.04719211  0.34550312
   0.83809780  0.04686980  0.34474730
   0.33902663  0.66376989  0.34546244
   0.83809295  0.66408119  0.34471155
   0.08572341  0.35570095  0.39802166
   0.58817032  0.35599178  0.39695258
   0.07941073  0.85548624  0.43584181
   0.59534984  0.85548277  0.43584448
   0.33396875  0.16814796  0.50308283
   0.84929981  0.15693117  0.49362689
   0.33397800  0.54269885  0.50306618
   0.84930292  0.55392723  0.49363475
   0.08007548  0.85547009  0.54762842
   0.59818649  0.85547818  0.54697064
   0.59058790  0.35539614  0.49367932
   0.83909343  0.85540477  0.49547480
   0.33911000  0.35546000  0.05551000
   0.83911000  0.35546000  0.05551000
   0.08911000  0.85546000  0.05551000
   0.58911000  0.85546000  0.05551000
   0.08911000  0.35546000  0.20047000
   0.58911000  0.35546000  0.20047000
   0.33911000  0.85546000  0.20047000
   0.83911000  0.85546000  0.20047000
   0.83541347  0.35546416  0.34321946
   0.33984936  0.35546423  0.34352772
   0.08830140  0.85548074  0.34584111
   0.58907211  0.85546630  0.34588709
   0.09662856  0.35540692  0.48557170
   0.33680120  0.85542305  0.49244755
Direct configuration=    17
   0.08911000  0.35546000  0.00000000
   0.58911000  0.35546000  0.00000000
   0.33911000  0.04693000  0.05551000